 Entering Gaussian System, Link 0=/home/pb777/GAUSSIAN/g16/g16
 Initial command:
 /home/pb777/GAUSSIAN/g16/l1.exe "/home/pb777/GAUSSIAN/g16/scratch/Gau-1062968.inp" -scrdir="/home/pb777/GAUSSIAN/g16/scratch/"
 Entering Link 1 = /home/pb777/GAUSSIAN/g16/l1.exe PID=   1062969.
  
 Copyright (c) 1988,1990,1992,1993,1995,1998,2003,2009,2016,
            Gaussian, Inc.  All Rights Reserved.
  
 This is part of the Gaussian(R) 16 program.  It is based on
 the Gaussian(R) 09 system (copyright 2009, Gaussian, Inc.),
 the Gaussian(R) 03 system (copyright 2003, Gaussian, Inc.),
 the Gaussian(R) 98 system (copyright 1998, Gaussian, Inc.),
 the Gaussian(R) 94 system (copyright 1995, Gaussian, Inc.),
 the Gaussian 92(TM) system (copyright 1992, Gaussian, Inc.),
 the Gaussian 90(TM) system (copyright 1990, Gaussian, Inc.),
 the Gaussian 88(TM) system (copyright 1988, Gaussian, Inc.),
 the Gaussian 86(TM) system (copyright 1986, Carnegie Mellon
 University), and the Gaussian 82(TM) system (copyright 1983,
 Carnegie Mellon University). Gaussian is a federally registered
 trademark of Gaussian, Inc.
  
 This software contains proprietary and confidential information,
 including trade secrets, belonging to Gaussian, Inc.
  
 This software is provided under written license and may be
 used, copied, transmitted, or stored only in accord with that
 written license.
  
 The following legend is applicable only to US Government
 contracts under FAR:
  
                    RESTRICTED RIGHTS LEGEND
  
 Use, reproduction and disclosure by the US Government is
 subject to restrictions as set forth in subparagraphs (a)
 and (c) of the Commercial Computer Software - Restricted
 Rights clause in FAR 52.227-19.
  
 Gaussian, Inc.
 340 Quinnipiac St., Bldg. 40, Wallingford CT 06492
  
  
 ---------------------------------------------------------------
 Warning -- This program may not be used in any manner that
 competes with the business of Gaussian, Inc. or will provide
 assistance to any competitor of Gaussian, Inc.  The licensee
 of this program is prohibited from giving any competitor of
 Gaussian, Inc. access to this program.  By using this program,
 the user acknowledges that Gaussian, Inc. is engaged in the
 business of creating and licensing software in the field of
 computational chemistry and represents and warrants to the
 licensee that it is not a competitor of Gaussian, Inc. and that
 it will not use this program in any manner prohibited above.
 ---------------------------------------------------------------
  

 Cite this work as:
 Gaussian 16, Revision A.03,
 M. J. Frisch, G. W. Trucks, H. B. Schlegel, G. E. Scuseria, 
 M. A. Robb, J. R. Cheeseman, G. Scalmani, V. Barone, 
 G. A. Petersson, H. Nakatsuji, X. Li, M. Caricato, A. V. Marenich, 
 J. Bloino, B. G. Janesko, R. Gomperts, B. Mennucci, H. P. Hratchian, 
 J. V. Ortiz, A. F. Izmaylov, J. L. Sonnenberg, D. Williams-Young, 
 F. Ding, F. Lipparini, F. Egidi, J. Goings, B. Peng, A. Petrone, 
 T. Henderson, D. Ranasinghe, V. G. Zakrzewski, J. Gao, N. Rega, 
 G. Zheng, W. Liang, M. Hada, M. Ehara, K. Toyota, R. Fukuda, 
 J. Hasegawa, M. Ishida, T. Nakajima, Y. Honda, O. Kitao, H. Nakai, 
 T. Vreven, K. Throssell, J. A. Montgomery, Jr., J. E. Peralta, 
 F. Ogliaro, M. J. Bearpark, J. J. Heyd, E. N. Brothers, K. N. Kudin, 
 V. N. Staroverov, T. A. Keith, R. Kobayashi, J. Normand, 
 K. Raghavachari, A. P. Rendell, J. C. Burant, S. S. Iyengar, 
 J. Tomasi, M. Cossi, J. M. Millam, M. Klene, C. Adamo, R. Cammi, 
 J. W. Ochterski, R. L. Martin, K. Morokuma, O. Farkas, 
 J. B. Foresman, and D. J. Fox, Gaussian, Inc., Wallingford CT, 2016.
 
 ******************************************
 Gaussian 16:  ES64L-G16RevA.03 25-Dec-2016
                30-Jan-2025 
 ******************************************
 %NPROC=1', f'%MEM=512MB
 Will use up to    1 processors via shared memory.
 %chk=binder_28.antechamber.chk
 ------------------------
 #P HF/6-31G* OPT(CalcFC)
 ------------------------
 1/10=4,18=20,19=15,38=1/1,3;
 2/9=110,12=2,17=6,18=5,40=1/2;
 3/5=1,6=6,7=1,11=9,25=1,30=1,71=2,140=1/1,2,3;
 4//1;
 5/5=2,38=5/2;
 8/6=4,10=90,11=11/1;
 11/6=1,8=1,9=11,15=111,16=1/1,2,10;
 10/6=1,13=1/2;
 6/7=2,8=2,9=2,10=2,28=1/1;
 7/10=1,18=20,25=1/1,2,3,16;
 1/10=4,18=20,19=15/3(2);
 2/9=110/2;
 99//99;
 2/9=110/2;
 3/5=1,6=6,7=1,11=9,25=1,30=1,71=1/1,2,3;
 4/5=5,16=3,69=1/1;
 5/5=2,38=5/2;
 7//1,2,3,16;
 1/18=20,19=15/3(-5);
 2/9=110/2;
 6/7=2,8=2,9=2,10=2,19=2,28=1/1;
 99/9=1/99;
 Leave Link    1 at Thu Jan 30 14:40:10 2025, MaxMem=           0 cpu:               0.0 elap:               0.0
 (Enter /home/pb777/GAUSSIAN/g16/l101.exe)
 --------------------
 Gaussian Calculation
 --------------------
 Symbolic Z-matrix:
 Charge =  0 Multiplicity = 1
 C                     1.422     29.034    6.768 
 C                    -1.45      32.163    8.008 
 C                    -0.582     26.625    8.978 
 C                    -1.25      25.767    10.081 
 C                    -1.355     24.331    9.527 
 C                    -1.653     23.273    10.603 
 C                    -0.781     23.343    11.865 
 C                    -0.712     24.779    12.432 
 C                    -0.388     25.86     11.38 
 C                     4.57      25.668    5.756 
 C                     4.561     25.164    7.061 
 C                     3.981     25.902    8.091 
 C                     3.344     27.102    7.792 
 N                     0.488     28.18     7.498 
 C                    -0.568     28.637    8.086 
 O                    -1.389     27.808    8.752 
 C                    -0.837     30.059    7.987 
 N                    -1.806     31.022    8.425 
 N                    -0.337     32.096    7.318 
 C                     0.012     30.844    7.311 
 N                     1.172     30.278    6.709 
 N                     2.523     28.721    6.157 
 C                     3.273     27.577    6.476 
 C                     3.931     26.875    5.47 
 H                    -1.974     33.085    8.159 
 H                    -0.541     26.054    8.043 
 H                     0.454     26.775    9.31 
 H                    -2.258     26.125    10.296 
 H                    -0.409     24.042    9.064 
 H                    -2.106     24.282    8.736 
 H                    -1.609     22.271    10.176 
 H                    -2.684     23.422    10.916 
 H                     0.23      23.014    11.618 
 H                    -1.151     22.652    12.623 
 H                    -0.026     24.811    13.272 
 H                    -1.687     25.018    12.862 
 H                    -0.474     26.853    11.824 
 H                     0.671     25.728    11.148 
 H                     5.045     25.116    4.957 
 H                     3.99      25.536    9.11 
 H                     2.852     27.643    8.584 
 H                     0.088     32.896    6.844 
 H                     3.002     29.479    5.691 
 H                     3.916     27.247    4.457 
 S                     5.295     23.57     7.417 
 O                     6.605     23.829    8.013 
 O                     5.185     22.758    6.2 
 H                     4.523     23.188    9.601 
 N                     4.325     22.805    8.652 
 C                     2.898     22.529    8.387 
 H                     2.514     21.835    9.136 
 H                     2.328     23.453    8.476 
 H                     2.765     22.101    7.392 
 
 ITRead=  0  0  0  0  0  0  0  0  0  0  0  0  0  0  0  0  0  0  0  0
 ITRead=  0  0  0  0  0  0  0  0  0  0  0  0  0  0  0  0  0  0  0  0
 ITRead=  0  0  0  0  0  0  0  0  0  0  0  0  0
 MicOpt= -1 -1 -1 -1 -1 -1 -1 -1 -1 -1 -1 -1 -1 -1 -1 -1 -1 -1 -1 -1
 MicOpt= -1 -1 -1 -1 -1 -1 -1 -1 -1 -1 -1 -1 -1 -1 -1 -1 -1 -1 -1 -1
 MicOpt= -1 -1 -1 -1 -1 -1 -1 -1 -1 -1 -1 -1 -1
 NAtoms=     53 NQM=       53 NQMF=       0 NMMI=      0 NMMIF=      0
                NMic=       0 NMicF=      0.
                    Isotopes and Nuclear Properties:
 (Nuclear quadrupole moments (NQMom) in fm**2, nuclear magnetic moments (NMagM)
  in nuclear magnetons)

  Atom         1           2           3           4           5           6           7           8           9          10
 IAtWgt=          12          12          12          12          12          12          12          12          12          12
 AtmWgt=  12.0000000  12.0000000  12.0000000  12.0000000  12.0000000  12.0000000  12.0000000  12.0000000  12.0000000  12.0000000
 NucSpn=           0           0           0           0           0           0           0           0           0           0
 AtZEff=  -0.0000000  -0.0000000  -0.0000000  -0.0000000  -0.0000000  -0.0000000  -0.0000000  -0.0000000  -0.0000000  -0.0000000
 NQMom=    0.0000000   0.0000000   0.0000000   0.0000000   0.0000000   0.0000000   0.0000000   0.0000000   0.0000000   0.0000000
 NMagM=    0.0000000   0.0000000   0.0000000   0.0000000   0.0000000   0.0000000   0.0000000   0.0000000   0.0000000   0.0000000
 AtZNuc=   6.0000000   6.0000000   6.0000000   6.0000000   6.0000000   6.0000000   6.0000000   6.0000000   6.0000000   6.0000000

  Atom        11          12          13          14          15          16          17          18          19          20
 IAtWgt=          12          12          12          14          12          16          12          14          14          12
 AtmWgt=  12.0000000  12.0000000  12.0000000  14.0030740  12.0000000  15.9949146  12.0000000  14.0030740  14.0030740  12.0000000
 NucSpn=           0           0           0           2           0           0           0           2           2           0
 AtZEff=  -0.0000000  -0.0000000  -0.0000000  -0.0000000  -0.0000000  -0.0000000  -0.0000000  -0.0000000  -0.0000000  -0.0000000
 NQMom=    0.0000000   0.0000000   0.0000000   2.0440000   0.0000000   0.0000000   0.0000000   2.0440000   2.0440000   0.0000000
 NMagM=    0.0000000   0.0000000   0.0000000   0.4037610   0.0000000   0.0000000   0.0000000   0.4037610   0.4037610   0.0000000
 AtZNuc=   6.0000000   6.0000000   6.0000000   7.0000000   6.0000000   8.0000000   6.0000000   7.0000000   7.0000000   6.0000000

  Atom        21          22          23          24          25          26          27          28          29          30
 IAtWgt=          14          14          12          12           1           1           1           1           1           1
 AtmWgt=  14.0030740  14.0030740  12.0000000  12.0000000   1.0078250   1.0078250   1.0078250   1.0078250   1.0078250   1.0078250
 NucSpn=           2           2           0           0           1           1           1           1           1           1
 AtZEff=  -0.0000000  -0.0000000  -0.0000000  -0.0000000  -0.0000000  -0.0000000  -0.0000000  -0.0000000  -0.0000000  -0.0000000
 NQMom=    2.0440000   2.0440000   0.0000000   0.0000000   0.0000000   0.0000000   0.0000000   0.0000000   0.0000000   0.0000000
 NMagM=    0.4037610   0.4037610   0.0000000   0.0000000   2.7928460   2.7928460   2.7928460   2.7928460   2.7928460   2.7928460
 AtZNuc=   7.0000000   7.0000000   6.0000000   6.0000000   1.0000000   1.0000000   1.0000000   1.0000000   1.0000000   1.0000000

  Atom        31          32          33          34          35          36          37          38          39          40
 IAtWgt=           1           1           1           1           1           1           1           1           1           1
 AtmWgt=   1.0078250   1.0078250   1.0078250   1.0078250   1.0078250   1.0078250   1.0078250   1.0078250   1.0078250   1.0078250
 NucSpn=           1           1           1           1           1           1           1           1           1           1
 AtZEff=  -0.0000000  -0.0000000  -0.0000000  -0.0000000  -0.0000000  -0.0000000  -0.0000000  -0.0000000  -0.0000000  -0.0000000
 NQMom=    0.0000000   0.0000000   0.0000000   0.0000000   0.0000000   0.0000000   0.0000000   0.0000000   0.0000000   0.0000000
 NMagM=    2.7928460   2.7928460   2.7928460   2.7928460   2.7928460   2.7928460   2.7928460   2.7928460   2.7928460   2.7928460
 AtZNuc=   1.0000000   1.0000000   1.0000000   1.0000000   1.0000000   1.0000000   1.0000000   1.0000000   1.0000000   1.0000000

  Atom        41          42          43          44          45          46          47          48          49          50
 IAtWgt=           1           1           1           1          32          16          16           1          14          12
 AtmWgt=   1.0078250   1.0078250   1.0078250   1.0078250  31.9720718  15.9949146  15.9949146   1.0078250  14.0030740  12.0000000
 NucSpn=           1           1           1           1           0           0           0           1           2           0
 AtZEff=  -0.0000000  -0.0000000  -0.0000000  -0.0000000  -0.0000000  -0.0000000  -0.0000000  -0.0000000  -0.0000000  -0.0000000
 NQMom=    0.0000000   0.0000000   0.0000000   0.0000000   0.0000000   0.0000000   0.0000000   0.0000000   2.0440000   0.0000000
 NMagM=    2.7928460   2.7928460   2.7928460   2.7928460   0.0000000   0.0000000   0.0000000   2.7928460   0.4037610   0.0000000
 AtZNuc=   1.0000000   1.0000000   1.0000000   1.0000000  16.0000000   8.0000000   8.0000000   1.0000000   7.0000000   6.0000000

  Atom        51          52          53
 IAtWgt=           1           1           1
 AtmWgt=   1.0078250   1.0078250   1.0078250
 NucSpn=           1           1           1
 AtZEff=  -0.0000000  -0.0000000  -0.0000000
 NQMom=    0.0000000   0.0000000   0.0000000
 NMagM=    2.7928460   2.7928460   2.7928460
 AtZNuc=   1.0000000   1.0000000   1.0000000
 Leave Link  101 at Thu Jan 30 14:40:10 2025, MaxMem=   104857600 cpu:               0.2 elap:               0.2
 (Enter /home/pb777/GAUSSIAN/g16/l103.exe)

 GradGradGradGradGradGradGradGradGradGradGradGradGradGradGradGradGradGrad
 Berny optimization.
 Initialization pass.
                           ----------------------------
                           !    Initial Parameters    !
                           ! (Angstroms and Degrees)  !
 --------------------------                            --------------------------
 ! Name  Definition              Value          Derivative Info.                !
 --------------------------------------------------------------------------------
 ! R1    R(1,14)                 1.461          calculate D2E/DX2 analytically  !
 ! R2    R(1,21)                 1.2702         calculate D2E/DX2 analytically  !
 ! R3    R(1,22)                 1.2975         calculate D2E/DX2 analytically  !
 ! R4    R(2,18)                 1.2659         calculate D2E/DX2 analytically  !
 ! R5    R(2,19)                 1.3112         calculate D2E/DX2 analytically  !
 ! R6    R(2,25)                 1.0712         calculate D2E/DX2 analytically  !
 ! R7    R(3,4)                  1.5489         calculate D2E/DX2 analytically  !
 ! R8    R(3,16)                 1.4498         calculate D2E/DX2 analytically  !
 ! R9    R(3,26)                 1.0963         calculate D2E/DX2 analytically  !
 ! R10   R(3,27)                 1.0982         calculate D2E/DX2 analytically  !
 ! R11   R(4,5)                  1.5427         calculate D2E/DX2 analytically  !
 ! R12   R(4,9)                  1.5618         calculate D2E/DX2 analytically  !
 ! R13   R(4,28)                 1.0911         calculate D2E/DX2 analytically  !
 ! R14   R(5,6)                  1.5382         calculate D2E/DX2 analytically  !
 ! R15   R(5,29)                 1.0922         calculate D2E/DX2 analytically  !
 ! R16   R(5,30)                 1.0918         calculate D2E/DX2 analytically  !
 ! R17   R(6,7)                  1.5356         calculate D2E/DX2 analytically  !
 ! R18   R(6,31)                 1.0901         calculate D2E/DX2 analytically  !
 ! R19   R(6,32)                 1.0877         calculate D2E/DX2 analytically  !
 ! R20   R(7,8)                  1.5454         calculate D2E/DX2 analytically  !
 ! R21   R(7,33)                 1.0915         calculate D2E/DX2 analytically  !
 ! R22   R(7,34)                 1.0904         calculate D2E/DX2 analytically  !
 ! R23   R(8,9)                  1.5428         calculate D2E/DX2 analytically  !
 ! R24   R(8,35)                 1.085          calculate D2E/DX2 analytically  !
 ! R25   R(8,36)                 1.0921         calculate D2E/DX2 analytically  !
 ! R26   R(9,37)                 1.0911         calculate D2E/DX2 analytically  !
 ! R27   R(9,38)                 1.0921         calculate D2E/DX2 analytically  !
 ! R28   R(10,11)                1.399          calculate D2E/DX2 analytically  !
 ! R29   R(10,24)                1.3953         calculate D2E/DX2 analytically  !
 ! R30   R(10,39)                1.0811         calculate D2E/DX2 analytically  !
 ! R31   R(11,12)                1.3935         calculate D2E/DX2 analytically  !
 ! R32   R(11,45)                1.7906         calculate D2E/DX2 analytically  !
 ! R33   R(12,13)                1.3911         calculate D2E/DX2 analytically  !
 ! R34   R(12,40)                1.0828         calculate D2E/DX2 analytically  !
 ! R35   R(13,23)                1.4009         calculate D2E/DX2 analytically  !
 ! R36   R(13,41)                1.078          calculate D2E/DX2 analytically  !
 ! R37   R(14,15)                1.2922         calculate D2E/DX2 analytically  !
 ! R38   R(15,16)                1.3434         calculate D2E/DX2 analytically  !
 ! R39   R(15,17)                1.4506         calculate D2E/DX2 analytically  !
 ! R40   R(17,18)                1.4346         calculate D2E/DX2 analytically  !
 ! R41   R(17,20)                1.3394         calculate D2E/DX2 analytically  !
 ! R42   R(19,20)                1.2998         calculate D2E/DX2 analytically  !
 ! R43   R(19,42)                1.0224         calculate D2E/DX2 analytically  !
 ! R44   R(20,21)                1.4242         calculate D2E/DX2 analytically  !
 ! R45   R(22,23)                1.4046         calculate D2E/DX2 analytically  !
 ! R46   R(22,43)                1.0105         calculate D2E/DX2 analytically  !
 ! R47   R(23,24)                1.3921         calculate D2E/DX2 analytically  !
 ! R48   R(24,44)                1.0792         calculate D2E/DX2 analytically  !
 ! R49   R(45,46)                1.4623         calculate D2E/DX2 analytically  !
 ! R50   R(45,47)                1.4672         calculate D2E/DX2 analytically  !
 ! R51   R(45,49)                1.7468         calculate D2E/DX2 analytically  !
 ! R52   R(48,49)                1.0424         calculate D2E/DX2 analytically  !
 ! R53   R(49,50)                1.4774         calculate D2E/DX2 analytically  !
 ! R54   R(50,51)                1.0909         calculate D2E/DX2 analytically  !
 ! R55   R(50,52)                1.0893         calculate D2E/DX2 analytically  !
 ! R56   R(50,53)                1.0913         calculate D2E/DX2 analytically  !
 ! A1    A(14,1,21)            118.0237         calculate D2E/DX2 analytically  !
 ! A2    A(14,1,22)            129.5499         calculate D2E/DX2 analytically  !
 ! A3    A(21,1,22)            112.4195         calculate D2E/DX2 analytically  !
 ! A4    A(18,2,19)            111.4686         calculate D2E/DX2 analytically  !
 ! A5    A(18,2,25)            126.2845         calculate D2E/DX2 analytically  !
 ! A6    A(19,2,25)            122.2337         calculate D2E/DX2 analytically  !
 ! A7    A(4,3,16)             108.8423         calculate D2E/DX2 analytically  !
 ! A8    A(4,3,26)             109.5696         calculate D2E/DX2 analytically  !
 ! A9    A(4,3,27)             105.4997         calculate D2E/DX2 analytically  !
 ! A10   A(16,3,26)            108.2318         calculate D2E/DX2 analytically  !
 ! A11   A(16,3,27)            117.4382         calculate D2E/DX2 analytically  !
 ! A12   A(26,3,27)            107.0788         calculate D2E/DX2 analytically  !
 ! A13   A(3,4,5)              106.8132         calculate D2E/DX2 analytically  !
 ! A14   A(3,4,9)              108.7409         calculate D2E/DX2 analytically  !
 ! A15   A(3,4,28)             110.9167         calculate D2E/DX2 analytically  !
 ! A16   A(5,4,9)              113.059          calculate D2E/DX2 analytically  !
 ! A17   A(5,4,28)             108.2581         calculate D2E/DX2 analytically  !
 ! A18   A(9,4,28)             109.0551         calculate D2E/DX2 analytically  !
 ! A19   A(4,5,6)              113.7174         calculate D2E/DX2 analytically  !
 ! A20   A(4,5,29)             109.8518         calculate D2E/DX2 analytically  !
 ! A21   A(4,5,30)             110.4108         calculate D2E/DX2 analytically  !
 ! A22   A(6,5,29)             106.4009         calculate D2E/DX2 analytically  !
 ! A23   A(6,5,30)             110.0394         calculate D2E/DX2 analytically  !
 ! A24   A(29,5,30)            106.0685         calculate D2E/DX2 analytically  !
 ! A25   A(5,6,7)              115.6925         calculate D2E/DX2 analytically  !
 ! A26   A(5,6,31)             110.5129         calculate D2E/DX2 analytically  !
 ! A27   A(5,6,32)             106.9005         calculate D2E/DX2 analytically  !
 ! A28   A(7,6,31)             109.9325         calculate D2E/DX2 analytically  !
 ! A29   A(7,6,32)             107.1888         calculate D2E/DX2 analytically  !
 ! A30   A(31,6,32)            106.0749         calculate D2E/DX2 analytically  !
 ! A31   A(6,7,8)              111.6688         calculate D2E/DX2 analytically  !
 ! A32   A(6,7,33)             109.0426         calculate D2E/DX2 analytically  !
 ! A33   A(6,7,34)             110.4714         calculate D2E/DX2 analytically  !
 ! A34   A(8,7,33)             108.7686         calculate D2E/DX2 analytically  !
 ! A35   A(8,7,34)             110.4231         calculate D2E/DX2 analytically  !
 ! A36   A(33,7,34)            106.296          calculate D2E/DX2 analytically  !
 ! A37   A(7,8,9)              114.2214         calculate D2E/DX2 analytically  !
 ! A38   A(7,8,35)             109.8572         calculate D2E/DX2 analytically  !
 ! A39   A(7,8,36)             107.9358         calculate D2E/DX2 analytically  !
 ! A40   A(9,8,35)             111.991          calculate D2E/DX2 analytically  !
 ! A41   A(9,8,36)             107.616          calculate D2E/DX2 analytically  !
 ! A42   A(35,8,36)            104.6661         calculate D2E/DX2 analytically  !
 ! A43   A(4,9,8)              114.1745         calculate D2E/DX2 analytically  !
 ! A44   A(4,9,37)             110.4349         calculate D2E/DX2 analytically  !
 ! A45   A(4,9,38)             110.5678         calculate D2E/DX2 analytically  !
 ! A46   A(8,9,37)             110.0986         calculate D2E/DX2 analytically  !
 ! A47   A(8,9,38)             105.2958         calculate D2E/DX2 analytically  !
 ! A48   A(37,9,38)            105.8347         calculate D2E/DX2 analytically  !
 ! A49   A(11,10,24)           119.9928         calculate D2E/DX2 analytically  !
 ! A50   A(11,10,39)           120.5511         calculate D2E/DX2 analytically  !
 ! A51   A(24,10,39)           119.4332         calculate D2E/DX2 analytically  !
 ! A52   A(10,11,12)           120.0903         calculate D2E/DX2 analytically  !
 ! A53   A(10,11,45)           120.2336         calculate D2E/DX2 analytically  !
 ! A54   A(12,11,45)           119.6761         calculate D2E/DX2 analytically  !
 ! A55   A(11,12,13)           119.2456         calculate D2E/DX2 analytically  !
 ! A56   A(11,12,40)           120.872          calculate D2E/DX2 analytically  !
 ! A57   A(13,12,40)           119.8459         calculate D2E/DX2 analytically  !
 ! A58   A(12,13,23)           121.1719         calculate D2E/DX2 analytically  !
 ! A59   A(12,13,41)           118.9473         calculate D2E/DX2 analytically  !
 ! A60   A(23,13,41)           119.7945         calculate D2E/DX2 analytically  !
 ! A61   A(1,14,15)            122.8931         calculate D2E/DX2 analytically  !
 ! A62   A(14,15,16)           120.4487         calculate D2E/DX2 analytically  !
 ! A63   A(14,15,17)           117.8516         calculate D2E/DX2 analytically  !
 ! A64   A(16,15,17)           121.696          calculate D2E/DX2 analytically  !
 ! A65   A(3,16,15)            103.9239         calculate D2E/DX2 analytically  !
 ! A66   A(15,17,18)           139.6791         calculate D2E/DX2 analytically  !
 ! A67   A(15,17,20)           119.4344         calculate D2E/DX2 analytically  !
 ! A68   A(18,17,20)           100.8835         calculate D2E/DX2 analytically  !
 ! A69   A(2,18,17)            108.3309         calculate D2E/DX2 analytically  !
 ! A70   A(2,19,20)            106.2584         calculate D2E/DX2 analytically  !
 ! A71   A(2,19,42)            123.8364         calculate D2E/DX2 analytically  !
 ! A72   A(20,19,42)           129.7628         calculate D2E/DX2 analytically  !
 ! A73   A(17,20,19)           113.056          calculate D2E/DX2 analytically  !
 ! A74   A(17,20,21)           119.7814         calculate D2E/DX2 analytically  !
 ! A75   A(19,20,21)           127.1419         calculate D2E/DX2 analytically  !
 ! A76   A(1,21,20)            121.9969         calculate D2E/DX2 analytically  !
 ! A77   A(1,22,23)            122.8616         calculate D2E/DX2 analytically  !
 ! A78   A(1,22,43)            116.0039         calculate D2E/DX2 analytically  !
 ! A79   A(23,22,43)           117.552          calculate D2E/DX2 analytically  !
 ! A80   A(13,23,22)           121.1015         calculate D2E/DX2 analytically  !
 ! A81   A(13,23,24)           118.9425         calculate D2E/DX2 analytically  !
 ! A82   A(22,23,24)           119.9328         calculate D2E/DX2 analytically  !
 ! A83   A(10,24,23)           120.3026         calculate D2E/DX2 analytically  !
 ! A84   A(10,24,44)           119.7959         calculate D2E/DX2 analytically  !
 ! A85   A(23,24,44)           119.8627         calculate D2E/DX2 analytically  !
 ! A86   A(11,45,46)           106.8925         calculate D2E/DX2 analytically  !
 ! A87   A(11,45,47)           107.2794         calculate D2E/DX2 analytically  !
 ! A88   A(11,45,49)           107.6252         calculate D2E/DX2 analytically  !
 ! A89   A(46,45,47)           120.2165         calculate D2E/DX2 analytically  !
 ! A90   A(46,45,49)           106.6705         calculate D2E/DX2 analytically  !
 ! A91   A(47,45,49)           107.6045         calculate D2E/DX2 analytically  !
 ! A92   A(45,49,48)           112.1657         calculate D2E/DX2 analytically  !
 ! A93   A(45,49,50)           119.4294         calculate D2E/DX2 analytically  !
 ! A94   A(48,49,50)           114.5459         calculate D2E/DX2 analytically  !
 ! A95   A(49,50,51)           109.614          calculate D2E/DX2 analytically  !
 ! A96   A(49,50,52)           109.4082         calculate D2E/DX2 analytically  !
 ! A97   A(49,50,53)           110.7645         calculate D2E/DX2 analytically  !
 ! A98   A(51,50,52)           107.4178         calculate D2E/DX2 analytically  !
 ! A99   A(51,50,53)           109.4875         calculate D2E/DX2 analytically  !
 ! A100  A(52,50,53)           110.0842         calculate D2E/DX2 analytically  !
 ! D1    D(21,1,14,15)          -0.3723         calculate D2E/DX2 analytically  !
 ! D2    D(22,1,14,15)         178.5919         calculate D2E/DX2 analytically  !
 ! D3    D(14,1,21,20)          -0.941          calculate D2E/DX2 analytically  !
 ! D4    D(22,1,21,20)         179.9229         calculate D2E/DX2 analytically  !
 ! D5    D(14,1,22,23)         -23.5584         calculate D2E/DX2 analytically  !
 ! D6    D(14,1,22,43)         178.3447         calculate D2E/DX2 analytically  !
 ! D7    D(21,1,22,23)         155.4525         calculate D2E/DX2 analytically  !
 ! D8    D(21,1,22,43)          -2.6443         calculate D2E/DX2 analytically  !
 ! D9    D(19,2,18,17)           0.3509         calculate D2E/DX2 analytically  !
 ! D10   D(25,2,18,17)         179.0458         calculate D2E/DX2 analytically  !
 ! D11   D(18,2,19,20)          -0.0571         calculate D2E/DX2 analytically  !
 ! D12   D(18,2,19,42)         175.9787         calculate D2E/DX2 analytically  !
 ! D13   D(25,2,19,20)        -178.8134         calculate D2E/DX2 analytically  !
 ! D14   D(25,2,19,42)          -2.7777         calculate D2E/DX2 analytically  !
 ! D15   D(16,3,4,5)           129.1727         calculate D2E/DX2 analytically  !
 ! D16   D(16,3,4,9)          -108.5107         calculate D2E/DX2 analytically  !
 ! D17   D(16,3,4,28)           11.4065         calculate D2E/DX2 analytically  !
 ! D18   D(26,3,4,5)            10.9985         calculate D2E/DX2 analytically  !
 ! D19   D(26,3,4,9)           133.3151         calculate D2E/DX2 analytically  !
 ! D20   D(26,3,4,28)         -106.7678         calculate D2E/DX2 analytically  !
 ! D21   D(27,3,4,5)          -103.9649         calculate D2E/DX2 analytically  !
 ! D22   D(27,3,4,9)            18.3517         calculate D2E/DX2 analytically  !
 ! D23   D(27,3,4,28)          138.2689         calculate D2E/DX2 analytically  !
 ! D24   D(4,3,16,15)          163.4859         calculate D2E/DX2 analytically  !
 ! D25   D(26,3,16,15)         -77.4995         calculate D2E/DX2 analytically  !
 ! D26   D(27,3,16,15)          43.7942         calculate D2E/DX2 analytically  !
 ! D27   D(3,4,5,6)            164.9645         calculate D2E/DX2 analytically  !
 ! D28   D(3,4,5,29)            45.8532         calculate D2E/DX2 analytically  !
 ! D29   D(3,4,5,30)           -70.7837         calculate D2E/DX2 analytically  !
 ! D30   D(9,4,5,6)             45.3994         calculate D2E/DX2 analytically  !
 ! D31   D(9,4,5,29)           -73.7119         calculate D2E/DX2 analytically  !
 ! D32   D(9,4,5,30)           169.6512         calculate D2E/DX2 analytically  !
 ! D33   D(28,4,5,6)           -75.5363         calculate D2E/DX2 analytically  !
 ! D34   D(28,4,5,29)          165.3525         calculate D2E/DX2 analytically  !
 ! D35   D(28,4,5,30)           48.7155         calculate D2E/DX2 analytically  !
 ! D36   D(3,4,9,8)           -164.5526         calculate D2E/DX2 analytically  !
 ! D37   D(3,4,9,37)            70.7518         calculate D2E/DX2 analytically  !
 ! D38   D(3,4,9,38)           -46.0445         calculate D2E/DX2 analytically  !
 ! D39   D(5,4,9,8)            -46.1023         calculate D2E/DX2 analytically  !
 ! D40   D(5,4,9,37)          -170.7978         calculate D2E/DX2 analytically  !
 ! D41   D(5,4,9,38)            72.4058         calculate D2E/DX2 analytically  !
 ! D42   D(28,4,9,8)            74.3803         calculate D2E/DX2 analytically  !
 ! D43   D(28,4,9,37)          -50.3152         calculate D2E/DX2 analytically  !
 ! D44   D(28,4,9,38)         -167.1115         calculate D2E/DX2 analytically  !
 ! D45   D(4,5,6,7)            -48.1359         calculate D2E/DX2 analytically  !
 ! D46   D(4,5,6,31)          -173.8634         calculate D2E/DX2 analytically  !
 ! D47   D(4,5,6,32)            71.1339         calculate D2E/DX2 analytically  !
 ! D48   D(29,5,6,7)            72.9256         calculate D2E/DX2 analytically  !
 ! D49   D(29,5,6,31)          -52.8018         calculate D2E/DX2 analytically  !
 ! D50   D(29,5,6,32)         -167.8045         calculate D2E/DX2 analytically  !
 ! D51   D(30,5,6,7)          -172.588          calculate D2E/DX2 analytically  !
 ! D52   D(30,5,6,31)           61.6846         calculate D2E/DX2 analytically  !
 ! D53   D(30,5,6,32)          -53.3181         calculate D2E/DX2 analytically  !
 ! D54   D(5,6,7,8)             48.8375         calculate D2E/DX2 analytically  !
 ! D55   D(5,6,7,33)           -71.3873         calculate D2E/DX2 analytically  !
 ! D56   D(5,6,7,34)           172.1441         calculate D2E/DX2 analytically  !
 ! D57   D(31,6,7,8)           174.8605         calculate D2E/DX2 analytically  !
 ! D58   D(31,6,7,33)           54.6357         calculate D2E/DX2 analytically  !
 ! D59   D(31,6,7,34)          -61.8328         calculate D2E/DX2 analytically  !
 ! D60   D(32,6,7,8)           -70.2741         calculate D2E/DX2 analytically  !
 ! D61   D(32,6,7,33)          169.5011         calculate D2E/DX2 analytically  !
 ! D62   D(32,6,7,34)           53.0325         calculate D2E/DX2 analytically  !
 ! D63   D(6,7,8,9)            -48.5808         calculate D2E/DX2 analytically  !
 ! D64   D(6,7,8,35)          -175.3816         calculate D2E/DX2 analytically  !
 ! D65   D(6,7,8,36)            71.0503         calculate D2E/DX2 analytically  !
 ! D66   D(33,7,8,9)            71.8045         calculate D2E/DX2 analytically  !
 ! D67   D(33,7,8,35)          -54.9963         calculate D2E/DX2 analytically  !
 ! D68   D(33,7,8,36)         -168.5644         calculate D2E/DX2 analytically  !
 ! D69   D(34,7,8,9)          -171.9148         calculate D2E/DX2 analytically  !
 ! D70   D(34,7,8,35)           61.2844         calculate D2E/DX2 analytically  !
 ! D71   D(34,7,8,36)          -52.2838         calculate D2E/DX2 analytically  !
 ! D72   D(7,8,9,4)             48.3294         calculate D2E/DX2 analytically  !
 ! D73   D(7,8,9,37)           173.2037         calculate D2E/DX2 analytically  !
 ! D74   D(7,8,9,38)           -73.1367         calculate D2E/DX2 analytically  !
 ! D75   D(35,8,9,4)           174.0172         calculate D2E/DX2 analytically  !
 ! D76   D(35,8,9,37)          -61.1085         calculate D2E/DX2 analytically  !
 ! D77   D(35,8,9,38)           52.5511         calculate D2E/DX2 analytically  !
 ! D78   D(36,8,9,4)           -71.4813         calculate D2E/DX2 analytically  !
 ! D79   D(36,8,9,37)           53.393          calculate D2E/DX2 analytically  !
 ! D80   D(36,8,9,38)          167.0527         calculate D2E/DX2 analytically  !
 ! D81   D(24,10,11,12)         -3.6634         calculate D2E/DX2 analytically  !
 ! D82   D(24,10,11,45)        176.3948         calculate D2E/DX2 analytically  !
 ! D83   D(39,10,11,12)        178.0847         calculate D2E/DX2 analytically  !
 ! D84   D(39,10,11,45)         -1.8572         calculate D2E/DX2 analytically  !
 ! D85   D(11,10,24,23)         -0.5491         calculate D2E/DX2 analytically  !
 ! D86   D(11,10,24,44)       -178.2793         calculate D2E/DX2 analytically  !
 ! D87   D(39,10,24,23)        177.7224         calculate D2E/DX2 analytically  !
 ! D88   D(39,10,24,44)         -0.0077         calculate D2E/DX2 analytically  !
 ! D89   D(10,11,12,13)          3.82           calculate D2E/DX2 analytically  !
 ! D90   D(10,11,12,40)       -178.3788         calculate D2E/DX2 analytically  !
 ! D91   D(45,11,12,13)       -176.2379         calculate D2E/DX2 analytically  !
 ! D92   D(45,11,12,40)          1.5633         calculate D2E/DX2 analytically  !
 ! D93   D(10,11,45,46)        101.4639         calculate D2E/DX2 analytically  !
 ! D94   D(10,11,45,47)        -28.7235         calculate D2E/DX2 analytically  !
 ! D95   D(10,11,45,49)       -144.2652         calculate D2E/DX2 analytically  !
 ! D96   D(12,11,45,46)        -78.4781         calculate D2E/DX2 analytically  !
 ! D97   D(12,11,45,47)        151.3345         calculate D2E/DX2 analytically  !
 ! D98   D(12,11,45,49)         35.7927         calculate D2E/DX2 analytically  !
 ! D99   D(11,12,13,23)          0.1886         calculate D2E/DX2 analytically  !
 ! D100  D(11,12,13,41)        176.8026         calculate D2E/DX2 analytically  !
 ! D101  D(40,12,13,23)       -177.6356         calculate D2E/DX2 analytically  !
 ! D102  D(40,12,13,41)         -1.0216         calculate D2E/DX2 analytically  !
 ! D103  D(12,13,23,22)        173.9174         calculate D2E/DX2 analytically  !
 ! D104  D(12,13,23,24)         -4.3312         calculate D2E/DX2 analytically  !
 ! D105  D(41,13,23,22)         -2.6683         calculate D2E/DX2 analytically  !
 ! D106  D(41,13,23,24)        179.0831         calculate D2E/DX2 analytically  !
 ! D107  D(1,14,15,16)        -179.5335         calculate D2E/DX2 analytically  !
 ! D108  D(1,14,15,17)           1.1588         calculate D2E/DX2 analytically  !
 ! D109  D(14,15,16,3)          18.2854         calculate D2E/DX2 analytically  !
 ! D110  D(17,15,16,3)        -162.4339         calculate D2E/DX2 analytically  !
 ! D111  D(14,15,17,18)       -179.8954         calculate D2E/DX2 analytically  !
 ! D112  D(14,15,17,20)         -0.6675         calculate D2E/DX2 analytically  !
 ! D113  D(16,15,17,18)          0.806          calculate D2E/DX2 analytically  !
 ! D114  D(16,15,17,20)       -179.9661         calculate D2E/DX2 analytically  !
 ! D115  D(15,17,18,2)         178.8317         calculate D2E/DX2 analytically  !
 ! D116  D(20,17,18,2)          -0.4835         calculate D2E/DX2 analytically  !
 ! D117  D(15,17,20,19)       -179.0241         calculate D2E/DX2 analytically  !
 ! D118  D(15,17,20,21)         -0.5623         calculate D2E/DX2 analytically  !
 ! D119  D(18,17,20,19)          0.4672         calculate D2E/DX2 analytically  !
 ! D120  D(18,17,20,21)        178.9289         calculate D2E/DX2 analytically  !
 ! D121  D(2,19,20,17)          -0.2906         calculate D2E/DX2 analytically  !
 ! D122  D(2,19,20,21)        -178.6158         calculate D2E/DX2 analytically  !
 ! D123  D(42,19,20,17)       -176.0064         calculate D2E/DX2 analytically  !
 ! D124  D(42,19,20,21)          5.6685         calculate D2E/DX2 analytically  !
 ! D125  D(17,20,21,1)           1.4077         calculate D2E/DX2 analytically  !
 ! D126  D(19,20,21,1)         179.6321         calculate D2E/DX2 analytically  !
 ! D127  D(1,22,23,13)         -33.7741         calculate D2E/DX2 analytically  !
 ! D128  D(1,22,23,24)         144.4573         calculate D2E/DX2 analytically  !
 ! D129  D(43,22,23,13)        124.0061         calculate D2E/DX2 analytically  !
 ! D130  D(43,22,23,24)        -57.7625         calculate D2E/DX2 analytically  !
 ! D131  D(13,23,24,10)          4.4797         calculate D2E/DX2 analytically  !
 ! D132  D(13,23,24,44)       -177.7917         calculate D2E/DX2 analytically  !
 ! D133  D(22,23,24,10)       -173.7898         calculate D2E/DX2 analytically  !
 ! D134  D(22,23,24,44)          3.9388         calculate D2E/DX2 analytically  !
 ! D135  D(11,45,49,48)        -78.0697         calculate D2E/DX2 analytically  !
 ! D136  D(11,45,49,50)         60.0776         calculate D2E/DX2 analytically  !
 ! D137  D(46,45,49,48)         36.3491         calculate D2E/DX2 analytically  !
 ! D138  D(46,45,49,50)        174.4964         calculate D2E/DX2 analytically  !
 ! D139  D(47,45,49,48)        166.6033         calculate D2E/DX2 analytically  !
 ! D140  D(47,45,49,50)        -55.2494         calculate D2E/DX2 analytically  !
 ! D141  D(45,49,50,51)        165.57           calculate D2E/DX2 analytically  !
 ! D142  D(45,49,50,52)        -76.8833         calculate D2E/DX2 analytically  !
 ! D143  D(45,49,50,53)         44.6481         calculate D2E/DX2 analytically  !
 ! D144  D(48,49,50,51)        -57.2187         calculate D2E/DX2 analytically  !
 ! D145  D(48,49,50,52)         60.328          calculate D2E/DX2 analytically  !
 ! D146  D(48,49,50,53)       -178.1406         calculate D2E/DX2 analytically  !
 --------------------------------------------------------------------------------
 Trust Radius=3.00D-01 FncErr=1.00D-07 GrdErr=1.00D-07 EigMax=2.50D+02 EigMin=1.00D-04
 Number of steps in this run=    312 maximum allowed number of steps=    318.
 GradGradGradGradGradGradGradGradGradGradGradGradGradGradGradGradGradGrad

 Leave Link  103 at Thu Jan 30 14:40:10 2025, MaxMem=   104857600 cpu:               0.0 elap:               0.0
 (Enter /home/pb777/GAUSSIAN/g16/l202.exe)
 Stoichiometry    C19H24N6O3S
 Framework group  C1[X(C19H24N6O3S)]
 Deg. of freedom   153
 Full point group                 C1      NOp   1
 Largest Abelian subgroup         C1      NOp   1
 Largest concise Abelian subgroup C1      NOp   1
                         Standard orientation:                         
 ---------------------------------------------------------------------
 Center     Atomic      Atomic             Coordinates (Angstroms)
 Number     Number       Type             X           Y           Z
 ---------------------------------------------------------------------
      1          6           0        1.950690   -2.172187   -0.227622
      2          6           0        6.251451   -1.361434    0.422580
      3          6           0        1.495237    1.626888   -0.478600
      4          6           0        1.320185    3.155646   -0.301814
      5          6           0        0.255897    3.604167   -1.324632
      6          6           0       -0.310384    5.008237   -1.052866
      7          6           0       -0.748009    5.281090    0.393496
      8          6           0        0.339940    4.861387    1.407677
      9          6           0        0.908524    3.445936    1.176483
     10          6           0       -2.696463   -2.872070   -0.649681
     11          6           0       -3.010031   -1.772895    0.156924
     12          6           0       -2.019601   -1.166138    0.926884
     13          6           0       -0.706952   -1.614555    0.821791
     14          7           0        1.929221   -0.732127   -0.473264
     15          6           0        2.984920    0.008902   -0.395123
     16          8           0        2.907172    1.330764   -0.622001
     17          6           0        4.243413   -0.636288   -0.072366
     18          7           0        5.624302   -0.302270    0.127011
     19          7           0        5.453521   -2.401743    0.443131
     20          6           0        4.268978   -1.957742    0.144673
     21          7           0        3.062451   -2.710621    0.068340
     22          7           0        0.975632   -3.028006   -0.245679
     23          6           0       -0.365137   -2.660169   -0.045605
     24          6           0       -1.376488   -3.314663   -0.743181
     25          1           0        7.301822   -1.443109    0.616257
     26          1           0        0.982139    1.301621   -1.391222
     27          1           0        0.966091    1.170965    0.368843
     28          1           0        2.249875    3.682291   -0.522662
     29          1           0       -0.594083    2.918791   -1.300150
     30          1           0        0.656806    3.552307   -2.338864
     31          1           0       -1.129991    5.228551   -1.736954
     32          1           0        0.478597    5.718643   -1.289428
     33          1           0       -1.659007    4.717304    0.602299
     34          1           0       -1.003011    6.333337    0.522705
     35          1           0       -0.029975    4.990373    2.419480
     36          1           0        1.168335    5.568067    1.323947
     37          1           0        1.748921    3.265068    1.848496
     38          1           0        0.118917    2.762514    1.496145
     39          1           0       -3.465050   -3.367633   -1.226241
     40          1           0       -2.253534   -0.331232    1.575424
     41          1           0        0.063681   -1.108086    1.380023
     42          1           0        5.771823   -3.360315    0.601637
     43          1           0        1.227619   -3.990526   -0.068988
     44          1           0       -1.133806   -4.145421   -1.387948
     45         16           0       -4.684190   -1.139632    0.206911
     46          8           0       -5.290915   -1.639457    1.439979
     47          8           0       -5.300538   -1.434337   -1.091472
     48          1           0       -4.371289    0.892660    1.339891
     49          7           0       -4.588147    0.597446    0.364025
     50          6           0       -3.902601    1.384133   -0.681862
     51          1           0       -4.151433    2.440162   -0.567939
     52          1           0       -2.824536    1.288042   -0.558820
     53          1           0       -4.197903    1.045766   -1.676449
 ---------------------------------------------------------------------
 Rotational constants (GHZ):           0.1726177           0.0993484           0.0669351
 Leave Link  202 at Thu Jan 30 14:40:10 2025, MaxMem=   104857600 cpu:               0.0 elap:               0.0
 (Enter /home/pb777/GAUSSIAN/g16/l301.exe)
 Standard basis: 6-31G(d) (6D, 7F)
 Ernie: Thresh=  0.10000D-02 Tol=  0.10000D-05 Strict=F.
 There are   487 symmetry adapted cartesian basis functions of A   symmetry.
 There are   487 symmetry adapted basis functions of A   symmetry.
   487 basis functions,   932 primitive gaussians,   487 cartesian basis functions
   110 alpha electrons      110 beta electrons
       nuclear repulsion energy      2947.7136367955 Hartrees.
 IExCor=    0 DFT=F Ex=HF Corr=None ExCW=0 ScaHFX=  1.000000
 ScaDFX=  1.000000  1.000000  1.000000  1.000000 ScalE2=  1.000000  1.000000
 IRadAn=      5 IRanWt=     -1 IRanGd=            0 ICorTp=0 IEmpDi=  4
 NAtoms=   53 NActive=   53 NUniq=   53 SFac= 1.00D+00 NAtFMM=   60 NAOKFM=F Big=F
 Integral buffers will be    131072 words long.
 Raffenetti 1 integral format.
 Two-electron integral symmetry is turned on.
 Leave Link  301 at Thu Jan 30 14:40:10 2025, MaxMem=   104857600 cpu:               0.0 elap:               0.0
 (Enter /home/pb777/GAUSSIAN/g16/l302.exe)
 NPDir=0 NMtPBC=     1 NCelOv=     1 NCel=       1 NClECP=     1 NCelD=      1
         NCelK=      1 NCelE2=     1 NClLst=     1 CellRange=     0.0.
 One-electron integrals computed using PRISM.
 One-electron integral symmetry used in STVInt
 NBasis=   487 RedAO= T EigKep=  4.34D-04  NBF=   487
 NBsUse=   487 1.00D-06 EigRej= -1.00D+00 NBFU=   487
 Leave Link  302 at Thu Jan 30 14:40:11 2025, MaxMem=   104857600 cpu:               0.2 elap:               0.2
 (Enter /home/pb777/GAUSSIAN/g16/l303.exe)
 DipDrv:  MaxL=1.
 Leave Link  303 at Thu Jan 30 14:40:11 2025, MaxMem=   104857600 cpu:               0.1 elap:               0.0
 (Enter /home/pb777/GAUSSIAN/g16/l401.exe)
 ExpMin= 1.17D-01 ExpMax= 2.19D+04 ExpMxC= 3.30D+03 IAcc=3 IRadAn=         5 AccDes= 0.00D+00
 Harris functional with IExCor=  205 and IRadAn=       5 diagonalized for initial guess.
 HarFok:  IExCor=  205 AccDes= 0.00D+00 IRadAn=         5 IDoV= 1 UseB2=F ITyADJ=14
 ICtDFT=  3500011 ScaDFX=  1.000000  1.000000  1.000000  1.000000
 FoFCou: FMM=F IPFlag=           0 FMFlag=      100000 FMFlg1=           0
         NFxFlg=           0 DoJE=T BraDBF=F KetDBF=T FulRan=T
         wScrn=  0.000000 ICntrl=       500 IOpCl=  0 I1Cent=   200000004 NGrid=           0
         NMat0=    1 NMatS0=      1 NMatT0=    0 NMatD0=    1 NMtDS0=    0 NMtDT0=    0
 Petite list used in FoFCou.
 Harris En= -1683.39425148505    
 JPrj=0 DoOrth=F DoCkMO=F.
 Leave Link  401 at Thu Jan 30 14:40:20 2025, MaxMem=   104857600 cpu:               9.4 elap:               9.4
 (Enter /home/pb777/GAUSSIAN/g16/l502.exe)
 Integral symmetry usage will be decided dynamically.
 Closed shell SCF:
 Using DIIS extrapolation, IDIIS=  1040.
 NGot=   104857600 LenX=   104374951 LenY=   104137295
 Requested convergence on RMS density matrix=1.00D-08 within 128 cycles.
 Requested convergence on MAX density matrix=1.00D-06.
 Requested convergence on             energy=1.00D-06.
 No special actions if energy rises.
 Fock matrices will be formed incrementally for  20 cycles.
 Integral accuracy reduced to 1.0D-05 until final iterations.

 Cycle   1  Pass 0  IDiag  1:
 FoFJK:  IHMeth= 1 ICntrl=       0 DoSepK=F KAlg= 0 I1Cent=           0 FoldK=F
 IRaf= 680000000 NMat=       1 IRICut=       1 DoRegI=T DoRafI=F ISym2E= 0 IDoP0=0 IntGTp=1.
 FoFCou: FMM=F IPFlag=           0 FMFlag=      100000 FMFlg1=           0
         NFxFlg=           0 DoJE=F BraDBF=F KetDBF=F FulRan=T
         wScrn=  0.000000 ICntrl=         0 IOpCl=  0 I1Cent=           0 NGrid=           0
         NMat0=    1 NMatS0=      1 NMatT0=    0 NMatD0=    1 NMtDS0=    0 NMtDT0=    0
 Symmetry not used in FoFCou.
 E= -1680.92495712278    
 DIIS: error= 6.16D-02 at cycle   1 NSaved=   1.
 NSaved= 1 IEnMin= 1 EnMin= -1680.92495712278     IErMin= 1 ErrMin= 6.16D-02
 ErrMax= 6.16D-02  0.00D+00 EMaxC= 1.00D-01 BMatC= 2.06D+00 BMatP= 2.06D+00
 IDIUse=3 WtCom= 3.84D-01 WtEn= 6.16D-01
 Coeff-Com:  0.100D+01
 Coeff-En:   0.100D+01
 Coeff:      0.100D+01
 Gap=     0.458 Goal=   None    Shift=    0.000
 GapD=    0.458 DampG=2.000 DampE=0.500 DampFc=1.0000 IDamp=-1.
 RMSDP=3.48D-03 MaxDP=1.92D-01              OVMax= 1.30D-01

 Cycle   2  Pass 0  IDiag  1:
 RMSU=  3.42D-03    CP:  9.60D-01
 E= -1681.86506240222     Delta-E=       -0.940105279436 Rises=F Damp=F
 DIIS: error= 1.86D-02 at cycle   2 NSaved=   2.
 NSaved= 2 IEnMin= 2 EnMin= -1681.86506240222     IErMin= 2 ErrMin= 1.86D-02
 ErrMax= 1.86D-02  0.00D+00 EMaxC= 1.00D-01 BMatC= 2.93D-01 BMatP= 2.06D+00
 IDIUse=3 WtCom= 8.14D-01 WtEn= 1.86D-01
 Coeff-Com:  0.203D+00 0.797D+00
 Coeff-En:   0.000D+00 0.100D+01
 Coeff:      0.165D+00 0.835D+00
 Gap=     0.418 Goal=   None    Shift=    0.000
 RMSDP=1.41D-03 MaxDP=1.83D-01 DE=-9.40D-01 OVMax= 6.37D-02

 Cycle   3  Pass 0  IDiag  1:
 RMSU=  1.16D-03    CP:  9.63D-01  7.67D-01
 E= -1682.06881754300     Delta-E=       -0.203755140778 Rises=F Damp=F
 DIIS: error= 9.88D-03 at cycle   3 NSaved=   3.
 NSaved= 3 IEnMin= 3 EnMin= -1682.06881754300     IErMin= 3 ErrMin= 9.88D-03
 ErrMax= 9.88D-03  0.00D+00 EMaxC= 1.00D-01 BMatC= 4.49D-02 BMatP= 2.93D-01
 IDIUse=3 WtCom= 9.01D-01 WtEn= 9.88D-02
 Coeff-Com: -0.196D-01 0.255D+00 0.764D+00
 Coeff-En:   0.000D+00 0.000D+00 0.100D+01
 Coeff:     -0.177D-01 0.230D+00 0.788D+00
 Gap=     0.392 Goal=   None    Shift=    0.000
 RMSDP=4.23D-04 MaxDP=5.73D-02 DE=-2.04D-01 OVMax= 2.69D-02

 Cycle   4  Pass 0  IDiag  1:
 RMSU=  2.54D-04    CP:  9.63D-01  8.45D-01  8.19D-01
 E= -1682.10318647677     Delta-E=       -0.034368933778 Rises=F Damp=F
 DIIS: error= 2.13D-03 at cycle   4 NSaved=   4.
 NSaved= 4 IEnMin= 4 EnMin= -1682.10318647677     IErMin= 4 ErrMin= 2.13D-03
 ErrMax= 2.13D-03  0.00D+00 EMaxC= 1.00D-01 BMatC= 2.17D-03 BMatP= 4.49D-02
 IDIUse=3 WtCom= 9.79D-01 WtEn= 2.13D-02
 Coeff-Com: -0.106D-01 0.456D-01 0.251D+00 0.714D+00
 Coeff-En:   0.000D+00 0.000D+00 0.000D+00 0.100D+01
 Coeff:     -0.104D-01 0.446D-01 0.246D+00 0.720D+00
 Gap=     0.396 Goal=   None    Shift=    0.000
 RMSDP=1.04D-04 MaxDP=9.37D-03 DE=-3.44D-02 OVMax= 8.11D-03

 Cycle   5  Pass 0  IDiag  1:
 RMSU=  7.09D-05    CP:  9.62D-01  8.44D-01  8.72D-01  8.23D-01
 E= -1682.10512392575     Delta-E=       -0.001937448979 Rises=F Damp=F
 DIIS: error= 4.30D-04 at cycle   5 NSaved=   5.
 NSaved= 5 IEnMin= 5 EnMin= -1682.10512392575     IErMin= 5 ErrMin= 4.30D-04
 ErrMax= 4.30D-04  0.00D+00 EMaxC= 1.00D-01 BMatC= 1.26D-04 BMatP= 2.17D-03
 IDIUse=3 WtCom= 9.96D-01 WtEn= 4.30D-03
 Coeff-Com:  0.714D-03-0.172D-01-0.468D-01 0.865D-01 0.977D+00
 Coeff-En:   0.000D+00 0.000D+00 0.000D+00 0.000D+00 0.100D+01
 Coeff:      0.711D-03-0.171D-01-0.466D-01 0.862D-01 0.977D+00
 Gap=     0.395 Goal=   None    Shift=    0.000
 RMSDP=4.03D-05 MaxDP=1.84D-03 DE=-1.94D-03 OVMax= 3.67D-03

 Cycle   6  Pass 0  IDiag  1:
 RMSU=  2.54D-05    CP:  9.62D-01  8.45D-01  8.84D-01  9.28D-01  1.09D+00
 E= -1682.10532939385     Delta-E=       -0.000205468097 Rises=F Damp=F
 DIIS: error= 1.47D-04 at cycle   6 NSaved=   6.
 NSaved= 6 IEnMin= 6 EnMin= -1682.10532939385     IErMin= 6 ErrMin= 1.47D-04
 ErrMax= 1.47D-04  0.00D+00 EMaxC= 1.00D-01 BMatC= 1.50D-05 BMatP= 1.26D-04
 IDIUse=3 WtCom= 9.99D-01 WtEn= 1.47D-03
 Coeff-Com:  0.128D-02-0.860D-02-0.382D-01-0.653D-01 0.167D+00 0.943D+00
 Coeff-En:   0.000D+00 0.000D+00 0.000D+00 0.000D+00 0.000D+00 0.100D+01
 Coeff:      0.128D-02-0.859D-02-0.381D-01-0.652D-01 0.167D+00 0.943D+00
 Gap=     0.396 Goal=   None    Shift=    0.000
 RMSDP=1.58D-05 MaxDP=9.96D-04 DE=-2.05D-04 OVMax= 1.54D-03

 Cycle   7  Pass 0  IDiag  1:
 RMSU=  8.88D-06    CP:  9.62D-01  8.45D-01  8.88D-01  9.50D-01  1.24D+00
                    CP:  1.08D+00
 E= -1682.10536373508     Delta-E=       -0.000034341228 Rises=F Damp=F
 DIIS: error= 3.91D-05 at cycle   7 NSaved=   7.
 NSaved= 7 IEnMin= 7 EnMin= -1682.10536373508     IErMin= 7 ErrMin= 3.91D-05
 ErrMax= 3.91D-05  0.00D+00 EMaxC= 1.00D-01 BMatC= 2.32D-06 BMatP= 1.50D-05
 IDIUse=1 WtCom= 1.00D+00 WtEn= 0.00D+00
 Coeff-Com:  0.103D-03 0.749D-03-0.886D-04-0.205D-01-0.963D-01 0.143D+00
 Coeff-Com:  0.973D+00
 Coeff:      0.103D-03 0.749D-03-0.886D-04-0.205D-01-0.963D-01 0.143D+00
 Coeff:      0.973D+00
 Gap=     0.396 Goal=   None    Shift=    0.000
 RMSDP=6.47D-06 MaxDP=2.71D-04 DE=-3.43D-05 OVMax= 7.96D-04

 Initial convergence to 1.0D-05 achieved.  Increase integral accuracy.
 Cycle   8  Pass 1  IDiag  1:
 E= -1682.10537051481     Delta-E=       -0.000006779735 Rises=F Damp=F
 DIIS: error= 6.51D-05 at cycle   1 NSaved=   1.
 NSaved= 1 IEnMin= 1 EnMin= -1682.10537051481     IErMin= 1 ErrMin= 6.51D-05
 ErrMax= 6.51D-05  0.00D+00 EMaxC= 1.00D-01 BMatC= 1.80D-06 BMatP= 1.80D-06
 IDIUse=1 WtCom= 1.00D+00 WtEn= 0.00D+00
 Coeff-Com:  0.100D+01
 Coeff:      0.100D+01
 Gap=     0.396 Goal=   None    Shift=    0.000
 RMSDP=6.47D-06 MaxDP=2.71D-04 DE=-6.78D-06 OVMax= 3.13D-04

 Cycle   9  Pass 1  IDiag  1:
 RMSU=  2.45D-05    CP:  1.00D+00
 E= -1682.10537243722     Delta-E=       -0.000001922404 Rises=F Damp=F
 DIIS: error= 1.47D-05 at cycle   2 NSaved=   2.
 NSaved= 2 IEnMin= 2 EnMin= -1682.10537243722     IErMin= 2 ErrMin= 1.47D-05
 ErrMax= 1.47D-05  0.00D+00 EMaxC= 1.00D-01 BMatC= 1.59D-07 BMatP= 1.80D-06
 IDIUse=1 WtCom= 1.00D+00 WtEn= 0.00D+00
 Coeff-Com:  0.435D-01 0.956D+00
 Coeff:      0.435D-01 0.956D+00
 Gap=     0.396 Goal=   None    Shift=    0.000
 RMSDP=1.85D-06 MaxDP=7.60D-05 DE=-1.92D-06 OVMax= 2.22D-04

 Cycle  10  Pass 1  IDiag  1:
 RMSU=  1.50D-06    CP:  1.00D+00  1.04D+00
 E= -1682.10537273917     Delta-E=       -0.000000301948 Rises=F Damp=F
 DIIS: error= 1.35D-05 at cycle   3 NSaved=   3.
 NSaved= 3 IEnMin= 3 EnMin= -1682.10537273917     IErMin= 3 ErrMin= 1.35D-05
 ErrMax= 1.35D-05  0.00D+00 EMaxC= 1.00D-01 BMatC= 7.22D-08 BMatP= 1.59D-07
 IDIUse=1 WtCom= 1.00D+00 WtEn= 0.00D+00
 Coeff-Com: -0.537D-01 0.334D+00 0.720D+00
 Coeff:     -0.537D-01 0.334D+00 0.720D+00
 Gap=     0.396 Goal=   None    Shift=    0.000
 RMSDP=7.46D-07 MaxDP=3.81D-05 DE=-3.02D-07 OVMax= 1.15D-04

 Cycle  11  Pass 1  IDiag  1:
 RMSU=  7.14D-07    CP:  1.00D+00  1.05D+00  9.81D-01
 E= -1682.10537287248     Delta-E=       -0.000000133310 Rises=F Damp=F
 DIIS: error= 5.88D-06 at cycle   4 NSaved=   4.
 NSaved= 4 IEnMin= 4 EnMin= -1682.10537287248     IErMin= 4 ErrMin= 5.88D-06
 ErrMax= 5.88D-06  0.00D+00 EMaxC= 1.00D-01 BMatC= 1.44D-08 BMatP= 7.22D-08
 IDIUse=1 WtCom= 1.00D+00 WtEn= 0.00D+00
 Coeff-Com:  0.124D-01-0.455D+00-0.339D+00 0.178D+01
 Coeff:      0.124D-01-0.455D+00-0.339D+00 0.178D+01
 Gap=     0.396 Goal=   None    Shift=    0.000
 RMSDP=9.59D-07 MaxDP=5.49D-05 DE=-1.33D-07 OVMax= 1.50D-04

 Cycle  12  Pass 1  IDiag  1:
 RMSU=  2.88D-07    CP:  1.00D+00  1.05D+00  1.42D+00  1.88D+00
 E= -1682.10537295254     Delta-E=       -0.000000080059 Rises=F Damp=F
 DIIS: error= 1.83D-06 at cycle   5 NSaved=   5.
 NSaved= 5 IEnMin= 5 EnMin= -1682.10537295254     IErMin= 5 ErrMin= 1.83D-06
 ErrMax= 1.83D-06  0.00D+00 EMaxC= 1.00D-01 BMatC= 1.47D-09 BMatP= 1.44D-08
 IDIUse=1 WtCom= 1.00D+00 WtEn= 0.00D+00
 Coeff-Com:  0.897D-02-0.172D+00-0.177D+00 0.549D+00 0.790D+00
 Coeff:      0.897D-02-0.172D+00-0.177D+00 0.549D+00 0.790D+00
 Gap=     0.396 Goal=   None    Shift=    0.000
 RMSDP=1.75D-07 MaxDP=8.84D-06 DE=-8.01D-08 OVMax= 2.75D-05

 Cycle  13  Pass 1  IDiag  1:
 RMSU=  8.82D-08    CP:  1.00D+00  1.05D+00  1.48D+00  2.05D+00  1.12D+00
 E= -1682.10537295670     Delta-E=       -0.000000004165 Rises=F Damp=F
 DIIS: error= 5.17D-07 at cycle   6 NSaved=   6.
 NSaved= 6 IEnMin= 6 EnMin= -1682.10537295670     IErMin= 6 ErrMin= 5.17D-07
 ErrMax= 5.17D-07  0.00D+00 EMaxC= 1.00D-01 BMatC= 2.24D-10 BMatP= 1.47D-09
 IDIUse=1 WtCom= 1.00D+00 WtEn= 0.00D+00
 Coeff-Com: -0.368D-02 0.110D+00 0.817D-01-0.398D+00-0.120D+00 0.133D+01
 Coeff:     -0.368D-02 0.110D+00 0.817D-01-0.398D+00-0.120D+00 0.133D+01
 Gap=     0.396 Goal=   None    Shift=    0.000
 RMSDP=9.83D-08 MaxDP=3.80D-06 DE=-4.16D-09 OVMax= 1.49D-05

 Cycle  14  Pass 1  IDiag  1:
 RMSU=  5.04D-08    CP:  1.00D+00  1.05D+00  1.49D+00  2.10D+00  1.33D+00
                    CP:  1.45D+00
 E= -1682.10537295762     Delta-E=       -0.000000000918 Rises=F Damp=F
 DIIS: error= 2.37D-07 at cycle   7 NSaved=   7.
 NSaved= 7 IEnMin= 7 EnMin= -1682.10537295762     IErMin= 7 ErrMin= 2.37D-07
 ErrMax= 2.37D-07  0.00D+00 EMaxC= 1.00D-01 BMatC= 3.89D-11 BMatP= 2.24D-10
 IDIUse=1 WtCom= 1.00D+00 WtEn= 0.00D+00
 Coeff-Com: -0.259D-02 0.591D-01 0.512D-01-0.197D+00-0.173D+00 0.319D+00
 Coeff-Com:  0.943D+00
 Coeff:     -0.259D-02 0.591D-01 0.512D-01-0.197D+00-0.173D+00 0.319D+00
 Coeff:      0.943D+00
 Gap=     0.396 Goal=   None    Shift=    0.000
 RMSDP=3.55D-08 MaxDP=1.97D-06 DE=-9.18D-10 OVMax= 5.19D-06

 Cycle  15  Pass 1  IDiag  1:
 RMSU=  1.60D-08    CP:  1.00D+00  1.05D+00  1.50D+00  2.11D+00  1.39D+00
                    CP:  1.66D+00  1.34D+00
 E= -1682.10537295776     Delta-E=       -0.000000000144 Rises=F Damp=F
 DIIS: error= 7.01D-08 at cycle   8 NSaved=   8.
 NSaved= 8 IEnMin= 8 EnMin= -1682.10537295776     IErMin= 8 ErrMin= 7.01D-08
 ErrMax= 7.01D-08  0.00D+00 EMaxC= 1.00D-01 BMatC= 3.65D-12 BMatP= 3.89D-11
 IDIUse=1 WtCom= 1.00D+00 WtEn= 0.00D+00
 Coeff-Com:  0.382D-03-0.121D-01-0.976D-02 0.458D-01 0.105D-01-0.167D+00
 Coeff-Com:  0.261D-01 0.111D+01
 Coeff:      0.382D-03-0.121D-01-0.976D-02 0.458D-01 0.105D-01-0.167D+00
 Coeff:      0.261D-01 0.111D+01
 Gap=     0.396 Goal=   None    Shift=    0.000
 RMSDP=1.25D-08 MaxDP=4.48D-07 DE=-1.44D-10 OVMax= 1.80D-06

 Cycle  16  Pass 1  IDiag  1:
 RMSU=  5.54D-09    CP:  1.00D+00  1.05D+00  1.50D+00  2.12D+00  1.39D+00
                    CP:  1.71D+00  1.51D+00  1.20D+00
 E= -1682.10537295777     Delta-E=       -0.000000000013 Rises=F Damp=F
 DIIS: error= 3.06D-08 at cycle   9 NSaved=   9.
 NSaved= 9 IEnMin= 9 EnMin= -1682.10537295777     IErMin= 9 ErrMin= 3.06D-08
 ErrMax= 3.06D-08  0.00D+00 EMaxC= 1.00D-01 BMatC= 5.26D-13 BMatP= 3.65D-12
 IDIUse=1 WtCom= 1.00D+00 WtEn= 0.00D+00
 Coeff-Com:  0.296D-03-0.712D-02-0.631D-02 0.246D-01 0.184D-01-0.521D-01
 Coeff-Com: -0.995D-01 0.139D+00 0.982D+00
 Coeff:      0.296D-03-0.712D-02-0.631D-02 0.246D-01 0.184D-01-0.521D-01
 Coeff:     -0.995D-01 0.139D+00 0.982D+00
 Gap=     0.396 Goal=   None    Shift=    0.000
 RMSDP=3.66D-09 MaxDP=1.50D-07 DE=-1.27D-11 OVMax= 6.41D-07

 SCF Done:  E(RHF) =  -1682.10537296     A.U. after   16 cycles
            NFock= 16  Conv=0.37D-08     -V/T= 2.0018
 KE= 1.679103682951D+03 PE=-9.842772540227D+03 EE= 3.533849847523D+03
 Leave Link  502 at Thu Jan 30 14:42:50 2025, MaxMem=   104857600 cpu:             148.9 elap:             149.5
 (Enter /home/pb777/GAUSSIAN/g16/l801.exe)
 Range of M.O.s used for correlation:     1   487
 NBasis=   487 NAE=   110 NBE=   110 NFC=     0 NFV=     0
 NROrb=    487 NOA=   110 NOB=   110 NVA=   377 NVB=   377
 Leave Link  801 at Thu Jan 30 14:42:50 2025, MaxMem=   104857600 cpu:               0.0 elap:               0.0
 (Enter /home/pb777/GAUSSIAN/g16/l1101.exe)
 Using compressed storage, NAtomX=    53.
 Will process     54 centers per pass.
 Leave Link 1101 at Thu Jan 30 14:42:50 2025, MaxMem=   104857600 cpu:               0.5 elap:               0.5
 (Enter /home/pb777/GAUSSIAN/g16/l1102.exe)
 Symmetrizing basis deriv contribution to polar:
 IMax=3 JMax=2 DiffMx= 0.00D+00
 Leave Link 1102 at Thu Jan 30 14:42:50 2025, MaxMem=   104857600 cpu:               0.1 elap:               0.1
 (Enter /home/pb777/GAUSSIAN/g16/l1110.exe)
 Forming Gx(P) for the SCF density, NAtomX=    53.
 Integral derivatives from FoFJK, PRISM(SPDF).
 Do as many integral derivatives as possible in FoFJK.
 G2DrvN: MDV=     104853648.
 G2DrvN: will do    54 centers at a time, making    1 passes.
 Calling FoFCou, ICntrl=  3107 FMM=F I1Cent=   0 AccDes= 0.00D+00.
 FoFJK:  IHMeth= 1 ICntrl=    3107 DoSepK=F KAlg= 0 I1Cent=           0 FoldK=F
 IRaf=         0 NMat=       1 IRICut=       1 DoRegI=T DoRafI=F ISym2E= 0 IDoP0=0 IntGTp=1.
 FoFCou: FMM=F IPFlag=           0 FMFlag=      100000 FMFlg1=           0
         NFxFlg=           0 DoJE=F BraDBF=F KetDBF=F FulRan=T
         wScrn=  0.000000 ICntrl=      3107 IOpCl=  0 I1Cent=           0 NGrid=           0
         NMat0=    1 NMatS0=      1 NMatT0=    0 NMatD0=    1 NMtDS0=    0 NMtDT0=    0
 Symmetry not used in FoFCou.
 End of G2Drv F.D. properties file   721 does not exist.
 End of G2Drv F.D. properties file   722 does not exist.
 End of G2Drv F.D. properties file   788 does not exist.
 Leave Link 1110 at Thu Jan 30 14:45:15 2025, MaxMem=   104857600 cpu:             144.4 elap:             145.2
 (Enter /home/pb777/GAUSSIAN/g16/l1002.exe)
 Minotr:  Closed shell wavefunction.
          IDoAtm=11111111111111111111111111111111111111111111111111
          IDoAtm=111
          Direct CPHF calculation.
          Differentiating once with respect to nuclear coordinates.
          Requested convergence is 1.0D-08 RMS, and 1.0D-07 maximum.
          Secondary convergence is 1.0D-12 RMS, and 1.0D-12 maximum.
          NewPWx=T KeepS1=F KeepF1=F KeepIn=T MapXYZ=F SortEE=F KeepMc=T.
 Two-electron integrals replicated using symmetry.
          MDV=     104857600 using IRadAn=       1.
          Solving linear equations simultaneously, MaxMat=     384.
 FoF2E skips out because all densities are zero.
 FoFJK:  IHMeth= 1 ICntrl=       0 DoSepK=F KAlg= 0 I1Cent=           0 FoldK=F
 IRaf= 640000000 NMat=     159 IRICut=     397 DoRegI=T DoRafI=T ISym2E= 2 IDoP0=0 IntGTp=1.
 FoFCou: FMM=F IPFlag=           0 FMFlag=      100000 FMFlg1=           0
         NFxFlg=           0 DoJE=F BraDBF=F KetDBF=F FulRan=T
         wScrn=  0.000000 ICntrl=         0 IOpCl=  0 I1Cent=           0 NGrid=           0
         NMat0=  159 NMatS0=    159 NMatT0=    0 NMatD0=  159 NMtDS0=    0 NMtDT0=    0
 Integrals replicated using symmetry in FoFCou.
 Raff kept on since  58.17% of shell-pairs survive, threshold=   0.20 IRatSp=58.
          There are   162 degrees of freedom in the 1st order CPHF.  IDoFFX=6 NUNeed=     0.
    156 vectors produced by pass  0 Test12= 4.15D-14 1.00D-09 XBig12= 1.22D-01 8.00D-02.
 AX will form   156 AO Fock derivatives at one time.
    156 vectors produced by pass  1 Test12= 4.15D-14 1.00D-09 XBig12= 1.12D-02 2.07D-02.
    156 vectors produced by pass  2 Test12= 4.15D-14 1.00D-09 XBig12= 3.30D-04 2.49D-03.
    156 vectors produced by pass  3 Test12= 4.15D-14 1.00D-09 XBig12= 5.57D-06 3.04D-04.
    156 vectors produced by pass  4 Test12= 4.15D-14 1.00D-09 XBig12= 7.00D-08 2.07D-05.
    156 vectors produced by pass  5 Test12= 4.15D-14 1.00D-09 XBig12= 4.70D-10 1.62D-06.
    140 vectors produced by pass  6 Test12= 4.15D-14 1.00D-09 XBig12= 3.01D-12 1.30D-07.
     50 vectors produced by pass  7 Test12= 4.15D-14 1.00D-09 XBig12= 1.75D-14 8.04D-09.
 InvSVY:  IOpt=1 It=  1 EMax= 3.61D-16
 Solved reduced A of dimension  1126 with   162 vectors.
 End of Minotr F.D. properties file   721 does not exist.
 End of Minotr F.D. properties file   722 does not exist.
 End of Minotr F.D. properties file   788 does not exist.
 Leave Link 1002 at Thu Jan 30 15:26:00 2025, MaxMem=   104857600 cpu:            2432.4 elap:            2444.8
 (Enter /home/pb777/GAUSSIAN/g16/l601.exe)
 Copying SCF densities to generalized density rwf, IOpCl= 0 IROHF=0.

 **********************************************************************

            Population analysis using the SCF density.

 **********************************************************************

 Orbital symmetries:
       Occupied  (A) (A) (A) (A) (A) (A) (A) (A) (A) (A) (A) (A)
                 (A) (A) (A) (A) (A) (A) (A) (A) (A) (A) (A) (A)
                 (A) (A) (A) (A) (A) (A) (A) (A) (A) (A) (A) (A)
                 (A) (A) (A) (A) (A) (A) (A) (A) (A) (A) (A) (A)
                 (A) (A) (A) (A) (A) (A) (A) (A) (A) (A) (A) (A)
                 (A) (A) (A) (A) (A) (A) (A) (A) (A) (A) (A) (A)
                 (A) (A) (A) (A) (A) (A) (A) (A) (A) (A) (A) (A)
                 (A) (A) (A) (A) (A) (A) (A) (A) (A) (A) (A) (A)
                 (A) (A) (A) (A) (A) (A) (A) (A) (A) (A) (A) (A)
                 (A) (A)
       Virtual   (A) (A) (A) (A) (A) (A) (A) (A) (A) (A) (A) (A)
                 (A) (A) (A) (A) (A) (A) (A) (A) (A) (A) (A) (A)
                 (A) (A) (A) (A) (A) (A) (A) (A) (A) (A) (A) (A)
                 (A) (A) (A) (A) (A) (A) (A) (A) (A) (A) (A) (A)
                 (A) (A) (A) (A) (A) (A) (A) (A) (A) (A) (A) (A)
                 (A) (A) (A) (A) (A) (A) (A) (A) (A) (A) (A) (A)
                 (A) (A) (A) (A) (A) (A) (A) (A) (A) (A) (A) (A)
                 (A) (A) (A) (A) (A) (A) (A) (A) (A) (A) (A) (A)
                 (A) (A) (A) (A) (A) (A) (A) (A) (A) (A) (A) (A)
                 (A) (A) (A) (A) (A) (A) (A) (A) (A) (A) (A) (A)
                 (A) (A) (A) (A) (A) (A) (A) (A) (A) (A) (A) (A)
                 (A) (A) (A) (A) (A) (A) (A) (A) (A) (A) (A) (A)
                 (A) (A) (A) (A) (A) (A) (A) (A) (A) (A) (A) (A)
                 (A) (A) (A) (A) (A) (A) (A) (A) (A) (A) (A) (A)
                 (A) (A) (A) (A) (A) (A) (A) (A) (A) (A) (A) (A)
                 (A) (A) (A) (A) (A) (A) (A) (A) (A) (A) (A) (A)
                 (A) (A) (A) (A) (A) (A) (A) (A) (A) (A) (A) (A)
                 (A) (A) (A) (A) (A) (A) (A) (A) (A) (A) (A) (A)
                 (A) (A) (A) (A) (A) (A) (A) (A) (A) (A) (A) (A)
                 (A) (A) (A) (A) (A) (A) (A) (A) (A) (A) (A) (A)
                 (A) (A) (A) (A) (A) (A) (A) (A) (A) (A) (A) (A)
                 (A) (A) (A) (A) (A) (A) (A) (A) (A) (A) (A) (A)
                 (A) (A) (A) (A) (A) (A) (A) (A) (A) (A) (A) (A)
                 (A) (A) (A) (A) (A) (A) (A) (A) (A) (A) (A) (A)
                 (A) (A) (A) (A) (A) (A) (A) (A) (A) (A) (A) (A)
                 (A) (A) (A) (A) (A) (A) (A) (A) (A) (A) (A) (A)
                 (A) (A) (A) (A) (A) (A) (A) (A) (A) (A) (A) (A)
                 (A) (A) (A) (A) (A) (A) (A) (A) (A) (A) (A) (A)
                 (A) (A) (A) (A) (A) (A) (A) (A) (A) (A) (A) (A)
                 (A) (A) (A) (A) (A) (A) (A) (A) (A) (A) (A) (A)
                 (A) (A) (A) (A) (A) (A) (A) (A) (A) (A) (A) (A)
                 (A) (A) (A) (A) (A)
 The electronic state is 1-A.
 Alpha  occ. eigenvalues --  -92.21478 -20.62040 -20.55639 -20.55292 -15.63908
 Alpha  occ. eigenvalues --  -15.61631 -15.61418 -15.56638 -15.55457 -15.54842
 Alpha  occ. eigenvalues --  -11.37601 -11.36757 -11.31530 -11.31281 -11.30315
 Alpha  occ. eigenvalues --  -11.28741 -11.28408 -11.27996 -11.27969 -11.27570
 Alpha  occ. eigenvalues --  -11.26339 -11.26268 -11.25417 -11.23255 -11.22813
 Alpha  occ. eigenvalues --  -11.22563 -11.22438 -11.22226 -11.22037  -9.18425
 Alpha  occ. eigenvalues --   -6.87009  -6.87005  -6.86927  -1.44773  -1.44747
 Alpha  occ. eigenvalues --   -1.40397  -1.35229  -1.33084  -1.24936  -1.21595
 Alpha  occ. eigenvalues --   -1.19729  -1.18087  -1.16050  -1.12077  -1.07021
 Alpha  occ. eigenvalues --   -1.04900  -1.04227  -1.02902  -1.00967  -0.95775
 Alpha  occ. eigenvalues --   -0.94029  -0.90866  -0.88978  -0.87496  -0.85757
 Alpha  occ. eigenvalues --   -0.84426  -0.83752  -0.82573  -0.81149  -0.79465
 Alpha  occ. eigenvalues --   -0.77217  -0.75443  -0.74507  -0.72393  -0.70657
 Alpha  occ. eigenvalues --   -0.68943  -0.68259  -0.67723  -0.66991  -0.65534
 Alpha  occ. eigenvalues --   -0.65060  -0.64648  -0.64417  -0.64045  -0.62870
 Alpha  occ. eigenvalues --   -0.62455  -0.61837  -0.61242  -0.60930  -0.60430
 Alpha  occ. eigenvalues --   -0.60144  -0.58826  -0.58564  -0.57096  -0.56136
 Alpha  occ. eigenvalues --   -0.55155  -0.53667  -0.53147  -0.53069  -0.51330
 Alpha  occ. eigenvalues --   -0.49898  -0.49411  -0.49244  -0.48945  -0.48540
 Alpha  occ. eigenvalues --   -0.47755  -0.46614  -0.45846  -0.45070  -0.44924
 Alpha  occ. eigenvalues --   -0.44006  -0.43212  -0.42970  -0.42488  -0.42387
 Alpha  occ. eigenvalues --   -0.38702  -0.38240  -0.36549  -0.35980  -0.30721
 Alpha virt. eigenvalues --    0.08921   0.11070   0.13157   0.17176   0.17578
 Alpha virt. eigenvalues --    0.19966   0.20303   0.22045   0.22531   0.22646
 Alpha virt. eigenvalues --    0.22945   0.23785   0.25100   0.25733   0.26360
 Alpha virt. eigenvalues --    0.26837   0.27210   0.27951   0.28619   0.28836
 Alpha virt. eigenvalues --    0.29229   0.30527   0.31134   0.31445   0.31849
 Alpha virt. eigenvalues --    0.32129   0.32425   0.32773   0.33165   0.33711
 Alpha virt. eigenvalues --    0.34324   0.34527   0.35669   0.36055   0.36436
 Alpha virt. eigenvalues --    0.37598   0.37936   0.39182   0.39827   0.40252
 Alpha virt. eigenvalues --    0.40865   0.41426   0.42265   0.42403   0.43915
 Alpha virt. eigenvalues --    0.44795   0.44945   0.45900   0.46478   0.48357
 Alpha virt. eigenvalues --    0.48975   0.49694   0.50498   0.51730   0.52952
 Alpha virt. eigenvalues --    0.53145   0.54572   0.54786   0.57261   0.57743
 Alpha virt. eigenvalues --    0.58649   0.59621   0.63469   0.66362   0.67004
 Alpha virt. eigenvalues --    0.67496   0.70987   0.71326   0.71595   0.72199
 Alpha virt. eigenvalues --    0.72811   0.73813   0.74227   0.74569   0.75097
 Alpha virt. eigenvalues --    0.75309   0.75797   0.76466   0.77230   0.78748
 Alpha virt. eigenvalues --    0.79053   0.79245   0.80230   0.80284   0.80693
 Alpha virt. eigenvalues --    0.81079   0.82229   0.82257   0.83563   0.83925
 Alpha virt. eigenvalues --    0.84308   0.85005   0.85855   0.87264   0.88601
 Alpha virt. eigenvalues --    0.88936   0.89265   0.89881   0.90894   0.91572
 Alpha virt. eigenvalues --    0.92121   0.92815   0.93976   0.95245   0.96424
 Alpha virt. eigenvalues --    0.97059   0.98052   0.98775   0.98894   0.99827
 Alpha virt. eigenvalues --    1.00283   1.00944   1.01043   1.01908   1.02478
 Alpha virt. eigenvalues --    1.03039   1.03620   1.04285   1.04538   1.04978
 Alpha virt. eigenvalues --    1.06047   1.06236   1.06591   1.07693   1.08236
 Alpha virt. eigenvalues --    1.09413   1.09874   1.10179   1.11127   1.11583
 Alpha virt. eigenvalues --    1.12876   1.13021   1.13341   1.13586   1.13903
 Alpha virt. eigenvalues --    1.14245   1.14464   1.14655   1.15363   1.15584
 Alpha virt. eigenvalues --    1.15682   1.16101   1.17300   1.17503   1.18130
 Alpha virt. eigenvalues --    1.18258   1.19324   1.19374   1.19752   1.20613
 Alpha virt. eigenvalues --    1.21080   1.21730   1.22360   1.22748   1.23140
 Alpha virt. eigenvalues --    1.24397   1.25126   1.25726   1.26495   1.27309
 Alpha virt. eigenvalues --    1.28082   1.28427   1.29173   1.31050   1.31613
 Alpha virt. eigenvalues --    1.33595   1.33844   1.34434   1.34847   1.35229
 Alpha virt. eigenvalues --    1.36847   1.38310   1.40093   1.40395   1.40763
 Alpha virt. eigenvalues --    1.41280   1.43725   1.44360   1.44640   1.46055
 Alpha virt. eigenvalues --    1.47672   1.48102   1.49404   1.50242   1.53178
 Alpha virt. eigenvalues --    1.53782   1.55014   1.55937   1.58179   1.58598
 Alpha virt. eigenvalues --    1.59226   1.59583   1.61301   1.63121   1.64041
 Alpha virt. eigenvalues --    1.64252   1.66239   1.66794   1.67402   1.69605
 Alpha virt. eigenvalues --    1.70034   1.70539   1.71913   1.73864   1.74233
 Alpha virt. eigenvalues --    1.75417   1.75993   1.76257   1.76981   1.79111
 Alpha virt. eigenvalues --    1.79907   1.81791   1.82380   1.83752   1.87297
 Alpha virt. eigenvalues --    1.88191   1.88867   1.90913   1.91911   1.92323
 Alpha virt. eigenvalues --    1.95841   1.96894   1.97779   1.98471   1.99601
 Alpha virt. eigenvalues --    2.00622   2.01694   2.03174   2.05046   2.06185
 Alpha virt. eigenvalues --    2.06479   2.07251   2.08842   2.09658   2.11476
 Alpha virt. eigenvalues --    2.12237   2.12600   2.12837   2.13065   2.13558
 Alpha virt. eigenvalues --    2.15305   2.15430   2.17577   2.19103   2.20847
 Alpha virt. eigenvalues --    2.22357   2.23005   2.23390   2.23907   2.24509
 Alpha virt. eigenvalues --    2.25284   2.26781   2.28035   2.28309   2.28745
 Alpha virt. eigenvalues --    2.29442   2.29787   2.30668   2.31029   2.32280
 Alpha virt. eigenvalues --    2.33144   2.33421   2.34476   2.36596   2.38177
 Alpha virt. eigenvalues --    2.38996   2.40432   2.41010   2.41683   2.42612
 Alpha virt. eigenvalues --    2.43593   2.44115   2.44943   2.45348   2.45997
 Alpha virt. eigenvalues --    2.47046   2.49637   2.51525   2.52829   2.53311
 Alpha virt. eigenvalues --    2.53714   2.54957   2.55468   2.58329   2.58924
 Alpha virt. eigenvalues --    2.59749   2.60338   2.61138   2.61699   2.63376
 Alpha virt. eigenvalues --    2.64551   2.65312   2.66398   2.67256   2.68210
 Alpha virt. eigenvalues --    2.68515   2.68900   2.70729   2.72370   2.72776
 Alpha virt. eigenvalues --    2.73314   2.74007   2.75075   2.76026   2.79762
 Alpha virt. eigenvalues --    2.80548   2.82703   2.84793   2.87183   2.88190
 Alpha virt. eigenvalues --    2.90088   2.91162   2.92445   2.93570   2.94400
 Alpha virt. eigenvalues --    2.96873   2.97776   2.98483   2.99186   2.99806
 Alpha virt. eigenvalues --    3.00420   3.01968   3.03744   3.04667   3.06570
 Alpha virt. eigenvalues --    3.07521   3.08417   3.09096   3.10758   3.12164
 Alpha virt. eigenvalues --    3.13972   3.14289   3.15153   3.16896   3.19046
 Alpha virt. eigenvalues --    3.20182   3.21208   3.24330   3.29629   3.31370
 Alpha virt. eigenvalues --    3.36057   3.41283   3.44612   3.56947   3.60244
 Alpha virt. eigenvalues --    3.74174   3.80891   3.90002   4.15773   4.36045
 Alpha virt. eigenvalues --    4.39880   4.41527   4.42194   4.47012   4.49144
 Alpha virt. eigenvalues --    4.51717   4.52561   4.54779   4.58249   4.58980
 Alpha virt. eigenvalues --    4.62155   4.63413   4.68232   4.68347   4.70491
 Alpha virt. eigenvalues --    4.71348   4.74018   4.78563   4.82601   4.86253
 Alpha virt. eigenvalues --    4.91590   4.95464   4.96516   5.06666   5.09206
 Alpha virt. eigenvalues --    5.14187   5.23151
          Condensed to atoms (all electrons):
 Mulliken charges:
               1
     1  C    0.877256
     2  C    0.259411
     3  C   -0.023441
     4  C   -0.160312
     5  C   -0.328635
     6  C   -0.315783
     7  C   -0.305229
     8  C   -0.317786
     9  C   -0.321900
    10  C   -0.170948
    11  C   -0.301115
    12  C   -0.178945
    13  C   -0.195664
    14  N   -0.779766
    15  C    0.783914
    16  O   -0.632976
    17  C    0.041761
    18  N   -0.554261
    19  N   -0.772134
    20  C    0.642413
    21  N   -0.728034
    22  N   -0.860517
    23  C    0.302870
    24  C   -0.220785
    25  H    0.227033
    26  H    0.197761
    27  H    0.187010
    28  H    0.194244
    29  H    0.143942
    30  H    0.176616
    31  H    0.161786
    32  H    0.153926
    33  H    0.138160
    34  H    0.169132
    35  H    0.164032
    36  H    0.154071
    37  H    0.177857
    38  H    0.134650
    39  H    0.264299
    40  H    0.218097
    41  H    0.233354
    42  H    0.417840
    43  H    0.426156
    44  H    0.227778
    45  S    1.654743
    46  O   -0.669824
    47  O   -0.689724
    48  H    0.393307
    49  N   -0.869699
    50  C   -0.315417
    51  H    0.199010
    52  H    0.165732
    53  H    0.224735
 Sum of Mulliken charges =  -0.00000
 Mulliken charges with hydrogens summed into heavy atoms:
               1
     1  C    0.877256
     2  C    0.486444
     3  C    0.361330
     4  C    0.033931
     5  C   -0.008078
     6  C   -0.000071
     7  C    0.002062
     8  C    0.000317
     9  C   -0.009393
    10  C    0.093351
    11  C   -0.301115
    12  C    0.039152
    13  C    0.037690
    14  N   -0.779766
    15  C    0.783914
    16  O   -0.632976
    17  C    0.041761
    18  N   -0.554261
    19  N   -0.354294
    20  C    0.642413
    21  N   -0.728034
    22  N   -0.434361
    23  C    0.302870
    24  C    0.006993
    45  S    1.654743
    46  O   -0.669824
    47  O   -0.689724
    49  N   -0.476393
    50  C    0.274061
 APT charges:
               1
     1  C   -0.213205
     2  C   -0.437886
     3  C    0.064725
     4  C   -0.767627
     5  C   -0.333962
     6  C   -1.646828
     7  C   -1.122283
     8  C   -1.635606
     9  C   -0.321007
    10  C   -0.622829
    11  C   -0.186185
    12  C   -0.523220
    13  C   -0.598462
    14  N   -0.987218
    15  C    0.212691
    16  O   -0.285831
    17  C   -0.374479
    18  N   -0.944569
    19  N   -0.949594
    20  C    0.793221
    21  N   -0.245625
    22  N   -0.936389
    23  C   -0.076911
    24  C   -0.501396
    25  H    1.513263
    26  H    0.256298
    27  H    0.122004
    28  H    0.717230
    29  H    0.076504
    30  H    0.514371
    31  H    0.600866
    32  H    0.691308
    33  H    0.094602
    34  H    1.055704
    35  H    0.620318
    36  H    0.709139
    37  H    0.473878
    38  H    0.093577
    39  H    1.019641
    40  H    0.375310
    41  H    0.237683
    42  H    1.372547
    43  H    1.115122
    44  H    0.813211
    45  S    0.329871
    46  O    0.020959
    47  O   -0.055153
    48  H    0.473204
    49  N   -0.834429
    50  C   -0.851323
    51  H    0.658417
    52  H   -0.147041
    53  H    0.573394
 Sum of APT charges =  -0.00000
 APT charges with hydrogens summed into heavy atoms:
               1
     1  C   -0.213205
     2  C    1.075377
     3  C    0.443027
     4  C   -0.050397
     5  C    0.256913
     6  C   -0.354654
     7  C    0.028022
     8  C   -0.306149
     9  C    0.246448
    10  C    0.396811
    11  C   -0.186185
    12  C   -0.147910
    13  C   -0.360780
    14  N   -0.987218
    15  C    0.212691
    16  O   -0.285831
    17  C   -0.374479
    18  N   -0.944569
    19  N    0.422953
    20  C    0.793221
    21  N   -0.245625
    22  N    0.178733
    23  C   -0.076911
    24  C    0.311815
    45  S    0.329871
    46  O    0.020959
    47  O   -0.055153
    49  N   -0.361225
    50  C    0.233448
 Electronic spatial extent (au):  <R**2>=          15254.3271
 Charge=              0.0000 electrons
 Dipole moment (field-independent basis, Debye):
    X=              6.3718    Y=             -0.9553    Z=              1.0949  Tot=              6.5354
 Quadrupole moment (field-independent basis, Debye-Ang):
   XX=           -214.2499   YY=           -156.4568   ZZ=           -181.2463
   XY=            -41.6647   XZ=              8.8689   YZ=              3.3684
 Traceless Quadrupole moment (field-independent basis, Debye-Ang):
   XX=            -30.2655   YY=             27.5275   ZZ=              2.7380
   XY=            -41.6647   XZ=              8.8689   YZ=              3.3684
 Octapole moment (field-independent basis, Debye-Ang**2):
  XXX=            456.3808  YYY=            -82.6345  ZZZ=             -2.4466  XYY=             57.9585
  XXY=            -61.0334  XXZ=             27.1442  XZZ=             10.6996  YZZ=             10.3123
  YYZ=            -16.0264  XYZ=            -34.4169
 Hexadecapole moment (field-independent basis, Debye-Ang**3):
 XXXX=         -12717.2681 YYYY=          -7081.0007 ZZZZ=           -819.3575 XXXY=          -1677.9102
 XXXZ=            352.8220 YYYX=           -183.9700 YYYZ=             57.2044 ZZZX=              2.3142
 ZZZY=              9.6517 XXYY=          -2955.9625 XXZZ=          -2273.7374 YYZZ=          -1402.1184
 XXYZ=            -30.7592 YYXZ=            108.6939 ZZXY=            -61.5367
 N-N= 2.947713636795D+03 E-N=-9.842772547135D+03  KE= 1.679103682951D+03
  Exact polarizability:   0.000   0.000   0.000   0.000   0.000   0.000
 Approx polarizability: 258.039  -3.955 226.093  11.754  12.564 177.633
 No NMR shielding tensors so no spin-rotation constants.
 Leave Link  601 at Thu Jan 30 15:26:01 2025, MaxMem=   104857600 cpu:               0.3 elap:               0.3
 (Enter /home/pb777/GAUSSIAN/g16/l701.exe)
 ... and contract with generalized density number  0.
 Compute integral second derivatives.
 Leave Link  701 at Thu Jan 30 15:26:01 2025, MaxMem=   104857600 cpu:               0.5 elap:               0.5
[...]
 1471 Fit      -0.026092
 1472 Fit      -0.045801
 1473 Fit      -0.046184
 1474 Fit      -0.039478
 1475 Fit      -0.035563
 1476 Fit      -0.028003
 1477 Fit      -0.040839
 1478 Fit      -0.041421
 1479 Fit      -0.031960
 1480 Fit      -0.026441
 1481 Fit      -0.032449
 1482 Fit       0.023399
 1483 Fit       0.019020
 1484 Fit       0.011346
 1485 Fit      -0.002113
 1486 Fit       0.025599
 1487 Fit       0.025355
 1488 Fit       0.021066
 1489 Fit       0.012431
 1490 Fit       0.026284
 1491 Fit       0.026984
 1492 Fit       0.023278
 1493 Fit      -0.010188
 1494 Fit      -0.026812
 1495 Fit      -0.035652
 1496 Fit      -0.011059
 1497 Fit      -0.022971
 1498 Fit      -0.029671
 1499 Fit       0.006206
 1500 Fit      -0.007300
 1501 Fit      -0.015822
 1502 Fit       0.021806
 1503 Fit       0.026402
 1504 Fit      -0.007628
 1505 Fit      -0.012312
 1506 Fit       0.016842
 1507 Fit       0.012495
 1508 Fit       0.006177
 1509 Fit       0.010749
 1510 Fit       0.012568
 1511 Fit       0.014261
 1512 Fit       0.014797
 1513 Fit       0.013348
 1514 Fit       0.020730
 1515 Fit       0.017334
 1516 Fit       0.011689
 1517 Fit       0.005345
 1518 Fit      -0.000396
 1519 Fit       0.016179
 1520 Fit       0.014637
 1521 Fit       0.011427
 1522 Fit       0.007634
 1523 Fit       0.005028
 1524 Fit       0.010549
 1525 Fit       0.014719
 1526 Fit       0.013514
 1527 Fit       0.010847
 1528 Fit       0.013177
 1529 Fit       0.007532
 1530 Fit       0.012561
 1531 Fit       0.018148
 1532 Fit       0.013967
 1533 Fit       0.012499
 1534 Fit       0.012132
 1535 Fit       0.013417
 1536 Fit       0.015323
 1537 Fit       0.013678
 1538 Fit       0.013714
 1539 Fit       0.014246
 1540 Fit      -0.016147
 1541 Fit      -0.015461
 1542 Fit      -0.004872
 1543 Fit      -0.010761
 1544 Fit      -0.013437
 1545 Fit      -0.001064
 1546 Fit       0.001525
 1547 Fit       0.007805
 1548 Fit      -0.000948
 1549 Fit       0.006342
 1550 Fit       0.009583
 1551 Fit      -0.001102
 1552 Fit       0.000068
 1553 Fit       0.002813
 1554 Fit       0.000714
 1555 Fit       0.004646
 1556 Fit       0.006047
 1557 Fit       0.002541
 1558 Fit       0.010378
 1559 Fit       0.014326
 1560 Fit      -0.002329
 1561 Fit      -0.002853
 1562 Fit       0.013459
 1563 Fit       0.003134
 1564 Fit       0.026281
 1565 Fit       0.016436
 1566 Fit       0.007541
 1567 Fit       0.002292
 1568 Fit       0.003288
 1569 Fit       0.002840
 1570 Fit       0.010722
 1571 Fit       0.001479
 1572 Fit       0.001172
 1573 Fit       0.002966
 1574 Fit      -0.000407
 1575 Fit      -0.000061
 1576 Fit       0.000291
 1577 Fit      -0.000775
 1578 Fit      -0.000589
 1579 Fit       0.000413
 1580 Fit       0.000578
 1581 Fit      -0.001152
 1582 Fit       0.000277
 1583 Fit      -0.003650
 1584 Fit      -0.005579
 1585 Fit      -0.001034
 1586 Fit      -0.003576
 1587 Fit      -0.005380
 1588 Fit      -0.001376
 1589 Fit      -0.016535
 1590 Fit      -0.015213
 1591 Fit      -0.008762
 1592 Fit      -0.002345
 1593 Fit       0.006349
 1594 Fit       0.015054
 1595 Fit       0.012639
 1596 Fit      -0.017370
 1597 Fit      -0.006835
 1598 Fit      -0.017941
 1599 Fit      -0.010623
 1600 Fit       0.004521
 1601 Fit      -0.017454
 1602 Fit      -0.016008
 1603 Fit       0.011976
 1604 Fit       0.017162
 1605 Fit       0.011564
 1606 Fit       0.015082
 1607 Fit       0.000213
 1608 Fit      -0.005787
 1609 Fit       0.007689
 1610 Fit      -0.011799
 1611 Fit      -0.007467
 1612 Fit      -0.014884
 1613 Fit       0.001029
 1614 Fit       0.004372
 1615 Fit       0.001180
 1616 Fit       0.003577
 1617 Fit      -0.004045
 1618 Fit      -0.002495
 1619 Fit       0.002267
 1620 Fit       0.001461
 1621 Fit       0.000190
 1622 Fit      -0.005565
 1623 Fit      -0.000971
 1624 Fit      -0.005137
 1625 Fit      -0.001806
 1626 Fit       0.001837
 1627 Fit      -0.000763
 1628 Fit      -0.007431
 1629 Fit      -0.026261
 1630 Fit      -0.012487
 1631 Fit      -0.003594
 1632 Fit      -0.003433
 1633 Fit      -0.008054
 1634 Fit      -0.002955
 1635 Fit      -0.001074
 1636 Fit      -0.019344
 1637 Fit      -0.014822
 1638 Fit      -0.014668
 1639 Fit      -0.017769
 1640 Fit      -0.022491
 1641 Fit      -0.008481
 1642 Fit      -0.007941
 1643 Fit      -0.008993
 1644 Fit      -0.013762
 1645 Fit      -0.020767
 1646 Fit      -0.025454
 1647 Fit      -0.009036
 1648 Fit      -0.018431
 1649 Fit      -0.024526
 1650 Fit      -0.027186
 1651 Fit      -0.013631
 1652 Fit      -0.021082
 1653 Fit      -0.024170
 1654 Fit      -0.007494
 1655 Fit      -0.016093
 1656 Fit      -0.019294
 1657 Fit      -0.018951
 1658 Fit      -0.010468
 1659 Fit      -0.013364
 1660 Fit      -0.011502
 1661 Fit      -0.004745
 1662 Fit      -0.006716
 1663 Fit       0.004848
 1664 Fit       0.008983
 1665 Fit       0.006225
 1666 Fit       0.012413
 1667 Fit       0.017662
 1668 Fit       0.018013
 1669 Fit       0.024884
 1670 Fit       0.029298
 1671 Fit       0.030184
 1672 Fit       0.020197
 1673 Fit       0.011198
 1674 Fit       0.006303
 1675 Fit       0.016278
 1676 Fit       0.017013
 1677 Fit       0.010277
 1678 Fit       0.018413
 1679 Fit       0.000657
 1680 Fit       0.004075
 1681 Fit       0.002568
 1682 Fit      -0.001052
 1683 Fit      -0.001023
 1684 Fit      -0.000555
 1685 Fit       0.003522
 1686 Fit       0.000209
 1687 Fit       0.005559
 1688 Fit       0.002698
 1689 Fit       0.008207
 1690 Fit       0.004597
 1691 Fit       0.013275
 1692 Fit       0.007478
 1693 Fit       0.006522
 1694 Fit       0.002578
 1695 Fit       0.001441
 1696 Fit       0.007747
 1697 Fit       0.003694
 1698 Fit       0.005630
 1699 Fit       0.002383
 1700 Fit       0.001166
 1701 Fit       0.005647
 1702 Fit       0.002030
 1703 Fit      -0.002800
 1704 Fit      -0.000122
 1705 Fit       0.001715
 1706 Fit       0.009790
 1707 Fit       0.004925
 1708 Fit       0.002997
 1709 Fit       0.003419
 1710 Fit       0.006477
 1711 Fit       0.007291
 1712 Fit       0.013977
 1713 Fit      -0.008716
 1714 Fit      -0.002524
 1715 Fit       0.002963
 1716 Fit      -0.009807
 1717 Fit      -0.004845
 1718 Fit      -0.006741
 1719 Fit      -0.001348
 1720 Fit       0.003474
 1721 Fit       0.004729
 1722 Fit       0.008806
 1723 Fit       0.005768
 1724 Fit       0.006651
 1725 Fit       0.014924
 1726 Fit       0.010152
 1727 Fit       0.009073
 1728 Fit       0.012514
 1729 Fit       0.006397
 1730 Fit       0.016053
 1731 Fit       0.013361
 1732 Fit       0.007109
 1733 Fit       0.023702
 1734 Fit       0.021572
 1735 Fit       0.018741
 1736 Fit       0.014354
 1737 Fit       0.007124
 1738 Fit       0.030576
 1739 Fit       0.025868
 1740 Fit       0.022112
 1741 Fit       0.017701
 1742 Fit       0.011495
 1743 Fit       0.030293
 1744 Fit       0.024190
 1745 Fit       0.018600
 1746 Fit       0.028211
 1747 Fit       0.006322
 1748 Fit       0.009687
 1749 Fit       0.011532
 1750 Fit       0.011436
 1751 Fit       0.005177
 1752 Fit       0.007898
 1753 Fit       0.006438
 1754 Fit       0.004129
 1755 Fit       0.002921
 1756 Fit       0.001826
 1757 Fit       0.000609
 1758 Fit      -0.000901
 1759 Fit       0.005232
 1760 Fit      -0.015697
 1761 Fit      -0.004603
 1762 Fit       0.001180
 1763 Fit       0.004397
 1764 Fit      -0.002758
 1765 Fit       0.002629
 1766 Fit       0.005598
 1767 Fit       0.000628
 1768 Fit       0.005863
 1769 Fit       0.002700
 1770 Fit       0.004977
 1771 Fit       0.002057
 1772 Fit       0.001604
 1773 Fit       0.002306
 1774 Fit       0.005462
 1775 Fit       0.000705
 1776 Fit       0.000609
 1777 Fit       0.005384
 1778 Fit       0.001806
 1779 Fit       0.002706
 1780 Fit       0.005244
 1781 Fit       0.005502
 1782 Fit       0.005605
 1783 Fit       0.005728
 1784 Fit       0.007596
 1785 Fit       0.007378
 1786 Fit       0.007335
 1787 Fit       0.007819
 1788 Fit       0.008753
 1789 Fit       0.011006
 1790 Fit       0.009804
 1791 Fit       0.009633
 1792 Fit       0.011211
 1793 Fit       0.001303
 1794 Fit       0.001093
 1795 Fit       0.001635
 1796 Fit       0.001957
 1797 Fit       0.001853
 1798 Fit       0.001396
 1799 Fit       0.001559
 1800 Fit       0.002215
 1801 Fit       0.002371
 1802 Fit       0.001911
 1803 Fit       0.001424
 1804 Fit       0.001562
 1805 Fit       0.002369
 1806 Fit       0.002665
 1807 Fit       0.002305
 1808 Fit       0.001867
 1809 Fit       0.002949
 1810 Fit       0.003406
 1811 Fit       0.002663
 1812 Fit       0.003384
 1813 Fit       0.002836
 1814 Fit       0.001889
 1815 Fit       0.004268
 1816 Fit       0.004030
 1817 Fit       0.003594
 1818 Fit       0.002752
 1819 Fit       0.001878
 1820 Fit       0.004824
 1821 Fit       0.004505
 1822 Fit       0.003922
 1823 Fit       0.003474
 1824 Fit       0.005685
 1825 Fit       0.005367
 1826 Fit      -0.000465
 1827 Fit       0.000434
 1828 Fit       0.000477
 1829 Fit      -0.000343
 1830 Fit       0.001243
 1831 Fit       0.001535
 1832 Fit       0.001319
 1833 Fit      -0.000066
 1834 Fit       0.000613
 1835 Fit       0.002161
 1836 Fit       0.002797
 1837 Fit       0.000969
 1838 Fit       0.001425
 1839 Fit       0.000520
 1840 Fit       0.000742
 1841 Fit       0.001585
 1842 Fit       0.001479
 1843 Fit       0.000172
 1844 Fit       0.000627
 1845 Fit       0.001608
 1846 Fit       0.002346
 1847 Fit       0.002290
 1848 Fit       0.001496
 1849 Fit       0.000239
 1850 Fit       0.002110
 1851 Fit       0.002571
 1852 Fit       0.002377
 1853 Fit       0.001804
 1854 Fit       0.001254
 1855 Fit       0.002389
 1856 Fit       0.002572
 1857 Fit       0.002058
 1858 Fit       0.001075
 1859 Fit       0.001004
 1860 Fit       0.001225
 1861 Fit       0.001053
 1862 Fit       0.000751
 1863 Fit       0.000645
 1864 Fit       0.001173
 1865 Fit       0.000833
 1866 Fit       0.000583
 1867 Fit       0.000366
 1868 Fit       0.000041
 1869 Fit      -0.000231
 1870 Fit       0.000001
 1871 Fit      -0.000785
 1872 Fit      -0.001219
 1873 Fit      -0.001486
 1874 Fit      -0.001742
 1875 Fit      -0.001860
 1876 Fit      -0.000976
 1877 Fit       0.000480
 1878 Fit      -0.003121
 1879 Fit      -0.001100
 1880 Fit       0.000607
 1881 Fit       0.001841
 1882 Fit      -0.004115
 1883 Fit      -0.001147
 1884 Fit       0.001106
 1885 Fit       0.002711
 1886 Fit      -0.004911
 1887 Fit      -0.000488
 1888 Fit       0.002519
 1889 Fit      -0.004656
 1890 Fit      -0.004954
 1891 Fit      -0.004574
 1892 Fit      -0.006781
 1893 Fit      -0.009205
 1894 Fit      -0.010259
 1895 Fit      -0.009167
 1896 Fit      -0.007014
 1897 Fit      -0.019835
 1898 Fit      -0.013209
 1899 Fit      -0.021157
 1900 Fit       0.001959
 1901 Fit       0.000585
 1902 Fit       0.002389
 1903 Fit       0.000947
 1904 Fit      -0.000857
 1905 Fit       0.003375
 1906 Fit       0.001621
 1907 Fit      -0.000695
 1908 Fit       0.005134
 1909 Fit       0.003292
 1910 Fit      -0.000594
 1911 Fit      -0.008113
 1912 Fit      -0.010445
 1913 Fit      -0.000021
 1914 Fit       0.007482
 1915 Fit       0.001325
 1916 Fit       0.007732
 1917 Fit       0.014676
 1918 Fit       0.009250
 1919 Fit       0.013503
 1920 Fit       0.013157
 1921 Fit      -0.005788
 1922 Fit      -0.021225
 1923 Fit       0.005545
 1924 Fit      -0.003365
 1925 Fit       0.010198
 1926 Fit       0.003127
 1927 Fit      -0.011684
 1928 Fit       0.012336
 1929 Fit       0.007193
 1930 Fit      -0.004401
 1931 Fit       0.013586
 1932 Fit       0.013691
 1933 Fit       0.026327
 1934 Fit       0.030792
 1935 Fit       0.034952
 1936 Fit       0.023201
 1937 Fit       0.029663
 1938 Fit       0.033359
 1939 Fit       0.035838
 1940 Fit       0.037864
 1941 Fit       0.016743
 1942 Fit       0.027286
 1943 Fit       0.032298
 1944 Fit       0.034396
 1945 Fit       0.034043
 1946 Fit       0.022625
 1947 Fit       0.029728
 1948 Fit       0.030707
 1949 Fit       0.025105
 1950 Fit       0.016635
 1951 Fit       0.013206
 1952 Fit       0.019411
 1953 Fit       0.010314
 1954 Fit       0.019555
 1955 Fit       0.021650
 1956 Fit       0.012919
 1957 Fit       0.018894
 1958 Fit       0.008060
 1959 Fit       0.012177
 1960 Fit       0.018446
 1961 Fit       0.013164
 1962 Fit       0.016201
 1963 Fit       0.021419
 1964 Fit       0.015782
 1965 Fit       0.016522
 1966 Fit       0.019639
 1967 Fit       0.024408
 1968 Fit       0.016313
 1969 Fit       0.018370
 1970 Fit       0.019897
 1971 Fit       0.015528
 1972 Fit       0.016006
 1973 Fit      -0.040269
 1974 Fit      -0.033668
 1975 Fit      -0.026773
 1976 Fit      -0.022745
 1977 Fit      -0.041936
 1978 Fit      -0.037727
 1979 Fit      -0.029392
 1980 Fit      -0.022009
 1981 Fit      -0.042849
 1982 Fit      -0.042310
 1983 Fit      -0.024898
 1984 Fit      -0.036163
 1985 Fit      -0.036665
 1986 Fit      -0.039142
 1987 Fit      -0.031321
 1988 Fit      -0.033302
 1989 Fit      -0.039082
 1990 Fit      -0.034035
 1991 Fit      -0.038376
 1992 Fit      -0.034556
 1993 Fit      -0.028816
 1994 Fit      -0.027487
 1995 Fit      -0.032434
 1996 Fit      -0.037261
 1997 Fit      -0.041488
 1998 Fit      -0.038474
 1999 Fit      -0.027613
 2000 Fit      -0.017022
 2001 Fit      -0.023940
 2002 Fit      -0.030097
 2003 Fit      -0.035277
 2004 Fit      -0.039123
 2005 Fit      -0.041350
 2006 Fit      -0.018396
 2007 Fit      -0.026110
 2008 Fit      -0.032712
 2009 Fit      -0.037673
 2010 Fit      -0.041012
 2011 Fit      -0.043567
 2012 Fit      -0.004227
 2013 Fit      -0.014359
 2014 Fit      -0.024754
 2015 Fit      -0.032843
 2016 Fit      -0.037666
 2017 Fit      -0.041106
 2018 Fit      -0.037640
 2019 Fit      -0.032616
 2020 Fit      -0.043630
 2021 Fit      -0.039262
 2022 Fit      -0.036392
 2023 Fit      -0.032102
 2024 Fit      -0.026048
 2025 Fit      -0.041642
 2026 Fit      -0.041035
 2027 Fit      -0.036076
 2028 Fit      -0.033313
 2029 Fit      -0.028942
 2030 Fit      -0.021694
 2031 Fit      -0.038074
 2032 Fit      -0.037710
 2033 Fit      -0.031291
 2034 Fit      -0.027817
 2035 Fit      -0.020858
 2036 Fit      -0.032209
 2037 Fit      -0.032726
 2038 Fit      -0.023713
 2039 Fit      -0.019422
 2040 Fit      -0.023634
 2041 Fit       0.011929
 2042 Fit       0.004202
 2043 Fit      -0.008272
 2044 Fit       0.020781
 2045 Fit       0.017856
 2046 Fit       0.012213
 2047 Fit       0.003107
 2048 Fit       0.020365
 2049 Fit       0.022579
 2050 Fit       0.021183
 2051 Fit       0.016857
 2052 Fit       0.009180
 2053 Fit       0.023272
 2054 Fit       0.020712
 2055 Fit      -0.017743
 2056 Fit      -0.028977
 2057 Fit      -0.003019
 2058 Fit      -0.015495
 2059 Fit      -0.024320
 2060 Fit      -0.030262
 2061 Fit       0.002980
 2062 Fit      -0.008189
 2063 Fit      -0.016490
 2064 Fit      -0.021908
 2065 Fit       0.018494
 2066 Fit       0.018398
 2067 Fit      -0.007330
 2068 Fit       0.012463
 2069 Fit       0.015253
 2070 Fit       0.001406
 2071 Fit       0.011038
 2072 Fit       0.005841
 2073 Fit       0.009347
 2074 Fit       0.010954
 2075 Fit       0.012455
 2076 Fit       0.012964
 2077 Fit       0.011561
 2078 Fit       0.021422
 2079 Fit       0.014585
 2080 Fit       0.006649
 2081 Fit      -0.000983
 2082 Fit       0.015714
 2083 Fit       0.012914
 2084 Fit       0.009000
 2085 Fit       0.004767
 2086 Fit       0.001059
 2087 Fit       0.013927
 2088 Fit       0.012501
 2089 Fit       0.009948
 2090 Fit       0.007079
 2091 Fit       0.005257
 2092 Fit       0.009485
 2093 Fit       0.012938
 2094 Fit       0.011643
 2095 Fit       0.009539
 2096 Fit       0.011564
 2097 Fit       0.006946
 2098 Fit       0.014824
 2099 Fit       0.007834
 2100 Fit       0.010351
 2101 Fit       0.013442
 2102 Fit       0.012720
 2103 Fit       0.012090
 2104 Fit       0.011620
 2105 Fit       0.012357
 2106 Fit       0.013854
 2107 Fit       0.012446
 2108 Fit       0.012508
 2109 Fit       0.013025
 2110 Fit      -0.022848
 2111 Fit      -0.009341
 2112 Fit      -0.007762
 2113 Fit      -0.000879
 2114 Fit      -0.006380
 2115 Fit      -0.008358
 2116 Fit       0.000236
 2117 Fit       0.002596
 2118 Fit       0.007599
 2119 Fit       0.000322
 2120 Fit       0.005872
 2121 Fit       0.008682
 -----------------------------------------------------------------
 Leave Link  602 at Thu Jan 30 18:20:27 2025, MaxMem=   104857600 cpu:               0.3 elap:               0.2
 (Enter /home/pb777/GAUSSIAN/g16/l9999.exe)

 Test job not archived.
 1\1\GINC-BUMBU\SP\RHF\6-31G(d)\C19H24N6O3S1\PB777\30-Jan-2025\0\\#P HF
 /6-31G* GEOM(AllCheck) Guess(Read) NoSymm Pop=mk IOp(6/33=2) GFInput G
 FPrint\\Gaussian Calculation\\0,1\C,0,1.4359476007,28.7303377284,7.070
 7859014\C,0,-1.8152813351,31.5504143546,7.6711111167\C,0,-0.5820013312
 ,26.4467497549,9.6916832456\C,0,-1.5381957795,25.8552230631,10.7090927
 946\C,0,-1.1111167559,24.4269251315,11.0606822061\C,0,-2.0457932879,23
 .8000485487,12.0944273056\C,0,-2.1513395021,24.6641998249,13.349603268
 9\C,0,-2.5761400356,26.0899763901,13.0034139336\C,0,-1.6403700687,26.7
 157481473,11.971018669\C,0,5.3214344274,25.8192207207,6.1572198513\C,0
 ,4.9064171761,24.7832522454,6.9940673896\C,0,3.7158928481,24.899684162
 1,7.708836285\C,0,2.9275657496,26.0347103423,7.5907044519\N,0,0.751194
 7593,27.9716159407,7.9426461198\C,0,-0.3870569893,28.443262998,8.43800
 60479\O,0,-1.0908033867,27.7271941957,9.3012937789\C,0,-0.8565079544,2
 9.7079343804,8.0495177123\N,0,-1.9650152798,30.4618598768,8.3706897425
 \N,0,-0.6707427272,31.5621906755,6.9036479368\C,0,-0.0324389432,30.375
 7036995,7.1341269082\N,0,1.1122745579,29.9446046057,6.6137400055\N,0,2
 .6187799894,28.2532694165,6.5512733168\C,0,3.3293890578,27.0797435099,
 6.7426981861\C,0,4.538233516,26.9531892728,6.0342877878\H,0,-2.5023575
 252,32.3869789709,7.6668610898\H,0,-0.4964893634,25.8100205433,8.80261
 53619\H,0,0.422282721,26.5726658405,10.1159279331\H,0,-2.5334408946,25
 .8111725386,10.2402898872\H,0,-0.0872259075,24.4472678609,11.464984626
 \H,0,-1.0779382254,23.8070901793,10.1545646622\H,0,-1.6978097049,22.79
 1999467,12.3511030729\H,0,-3.0452754137,23.6827527996,11.6506846875\H,
 0,-1.1735195943,24.690523072,13.8528958661\H,0,-2.8565668905,24.216141
 5562,14.0605009499\H,0,-2.6061672596,26.7104029847,13.9074601581\H,0,-
 3.5998355211,26.0759044069,12.6012962661\H,0,-1.9756148568,27.72432649
 55,11.7053635272\H,0,-0.6348118113,26.819940956,12.4083295145\H,0,6.26
 7722921,25.7410559335,5.6311795672\H,0,3.4197666063,24.1022021535,8.38
 42059946\H,0,2.00851314,26.1334303492,8.1509944789\H,0,-0.3504232164,3
 2.2953105845,6.2899246241\H,0,3.0333507438,28.9213623249,5.916363337\H
 ,0,4.8677047493,27.7648083589,5.3889646157\S,0,5.8756180984,23.3025963
 424,7.1236159614\O,0,5.5469438431,22.6714317034,8.3936467451\O,0,7.237
 0153493,23.6434826183,6.7359281573\H,0,4.4080107007,21.8805375604,6.22
 7311422\N,0,5.3170705074,22.2447937889,5.9613225112\C,0,5.4551917597,2
 2.6130641469,4.5627399478\H,0,5.1975421695,21.743115307,3.9528435083\H
 ,0,4.8210114731,23.4604932531,4.2632826979\H,0,6.5014050963,22.8630689
 183,4.3752248669\\Version=ES64L-G16RevA.03\HF=-1682.2258092\RMSD=8.431
 e-09\Dipole=-2.0536039,1.9353257,-1.7583308\Quadrupole=-83.9283492,167
 .7217561,-83.793407,-81.7612385,-42.4637887,-61.7052719\PG=C01 [X(C19H
 24N6O3S1)]\\@


      THE ONE-EYED VIEW OF OUR UNIVERSE SAYS YOU MUST NOT LOOK
      FAR AFIELD FOR PROBLEMS.  SUCH PROBLEMS MAY NEVER ARRIVE. 
      INSTEAD, TEND TO THE WOLF WITHIN YOUR FENCES.
      THE PACKS RANGING OUTSIDE MAY NOT EVEN EXIST.

                              -- THE AZHAR BOOK SHAMRA I:4
                                 CHILDREN OF DUNE, BY FRANK HERBERT
 Job cpu time:       0 days  0 hours  2 minutes 24.1 seconds.
 Elapsed time:       0 days  0 hours  2 minutes 24.6 seconds.
 File lengths (MBytes):  RWF=    126 Int=      0 D2E=      0 Chk=     22 Scr=      1
 Normal termination of Gaussian 16 at Thu Jan 30 18:20:27 2025.
