 Entering Gaussian System, Link 0=/home/pb777/GAUSSIAN/g16/g16
 Initial command:
 /home/pb777/GAUSSIAN/g16/l1.exe "/home/pb777/GAUSSIAN/g16/scratch/Gau-1062759.inp" -scrdir="/home/pb777/GAUSSIAN/g16/scratch/"
 Entering Link 1 = /home/pb777/GAUSSIAN/g16/l1.exe PID=   1062760.
  
 Copyright (c) 1988,1990,1992,1993,1995,1998,2003,2009,2016,
            Gaussian, Inc.  All Rights Reserved.
  
 This is part of the Gaussian(R) 16 program.  It is based on
 the Gaussian(R) 09 system (copyright 2009, Gaussian, Inc.),
 the Gaussian(R) 03 system (copyright 2003, Gaussian, Inc.),
 the Gaussian(R) 98 system (copyright 1998, Gaussian, Inc.),
 the Gaussian(R) 94 system (copyright 1995, Gaussian, Inc.),
 the Gaussian 92(TM) system (copyright 1992, Gaussian, Inc.),
 the Gaussian 90(TM) system (copyright 1990, Gaussian, Inc.),
 the Gaussian 88(TM) system (copyright 1988, Gaussian, Inc.),
 the Gaussian 86(TM) system (copyright 1986, Carnegie Mellon
 University), and the Gaussian 82(TM) system (copyright 1983,
 Carnegie Mellon University). Gaussian is a federally registered
 trademark of Gaussian, Inc.
  
 This software contains proprietary and confidential information,
 including trade secrets, belonging to Gaussian, Inc.
  
 This software is provided under written license and may be
 used, copied, transmitted, or stored only in accord with that
 written license.
  
 The following legend is applicable only to US Government
 contracts under FAR:
  
                    RESTRICTED RIGHTS LEGEND
  
 Use, reproduction and disclosure by the US Government is
 subject to restrictions as set forth in subparagraphs (a)
 and (c) of the Commercial Computer Software - Restricted
 Rights clause in FAR 52.227-19.
  
 Gaussian, Inc.
 340 Quinnipiac St., Bldg. 40, Wallingford CT 06492
  
  
 ---------------------------------------------------------------
 Warning -- This program may not be used in any manner that
 competes with the business of Gaussian, Inc. or will provide
 assistance to any competitor of Gaussian, Inc.  The licensee
 of this program is prohibited from giving any competitor of
 Gaussian, Inc. access to this program.  By using this program,
 the user acknowledges that Gaussian, Inc. is engaged in the
 business of creating and licensing software in the field of
 computational chemistry and represents and warrants to the
 licensee that it is not a competitor of Gaussian, Inc. and that
 it will not use this program in any manner prohibited above.
 ---------------------------------------------------------------
  

 Cite this work as:
 Gaussian 16, Revision A.03,
 M. J. Frisch, G. W. Trucks, H. B. Schlegel, G. E. Scuseria, 
 M. A. Robb, J. R. Cheeseman, G. Scalmani, V. Barone, 
 G. A. Petersson, H. Nakatsuji, X. Li, M. Caricato, A. V. Marenich, 
 J. Bloino, B. G. Janesko, R. Gomperts, B. Mennucci, H. P. Hratchian, 
 J. V. Ortiz, A. F. Izmaylov, J. L. Sonnenberg, D. Williams-Young, 
 F. Ding, F. Lipparini, F. Egidi, J. Goings, B. Peng, A. Petrone, 
 T. Henderson, D. Ranasinghe, V. G. Zakrzewski, J. Gao, N. Rega, 
 G. Zheng, W. Liang, M. Hada, M. Ehara, K. Toyota, R. Fukuda, 
 J. Hasegawa, M. Ishida, T. Nakajima, Y. Honda, O. Kitao, H. Nakai, 
 T. Vreven, K. Throssell, J. A. Montgomery, Jr., J. E. Peralta, 
 F. Ogliaro, M. J. Bearpark, J. J. Heyd, E. N. Brothers, K. N. Kudin, 
 V. N. Staroverov, T. A. Keith, R. Kobayashi, J. Normand, 
 K. Raghavachari, A. P. Rendell, J. C. Burant, S. S. Iyengar, 
 J. Tomasi, M. Cossi, J. M. Millam, M. Klene, C. Adamo, R. Cammi, 
 J. W. Ochterski, R. L. Martin, K. Morokuma, O. Farkas, 
 J. B. Foresman, and D. J. Fox, Gaussian, Inc., Wallingford CT, 2016.
 
 ******************************************
 Gaussian 16:  ES64L-G16RevA.03 25-Dec-2016
                30-Jan-2025 
 ******************************************
 %NPROC=1', f'%MEM=512MB
 Will use up to    1 processors via shared memory.
 %chk=binder_30.antechamber.chk
 ------------------------
 #P HF/6-31G* OPT(CalcFC)
 ------------------------
 1/10=4,18=20,19=15,38=1/1,3;
 2/9=110,12=2,17=6,18=5,40=1/2;
 3/5=1,6=6,7=1,11=9,25=1,30=1,71=2,140=1/1,2,3;
 4//1;
 5/5=2,38=5/2;
 8/6=4,10=90,11=11/1;
 11/6=1,8=1,9=11,15=111,16=1/1,2,10;
 10/6=1,13=1/2;
 6/7=2,8=2,9=2,10=2,28=1/1;
 7/10=1,18=20,25=1/1,2,3,16;
 1/10=4,18=20,19=15/3(2);
 2/9=110/2;
 99//99;
 2/9=110/2;
 3/5=1,6=6,7=1,11=9,25=1,30=1,71=1/1,2,3;
 4/5=5,16=3,69=1/1;
 5/5=2,38=5/2;
 7//1,2,3,16;
 1/18=20,19=15/3(-5);
 2/9=110/2;
 6/7=2,8=2,9=2,10=2,19=2,28=1/1;
 99/9=1/99;
 Leave Link    1 at Thu Jan 30 14:39:58 2025, MaxMem=           0 cpu:               0.0 elap:               0.0
 (Enter /home/pb777/GAUSSIAN/g16/l101.exe)
 --------------------
 Gaussian Calculation
 --------------------
 Symbolic Z-matrix:
 Charge =  0 Multiplicity = 1
 C                     1.422     29.034    6.768 
 C                    -1.45      32.163    8.008 
 C                    -0.582     26.625    8.978 
 C                    -1.25      25.767    10.081 
 C                    -1.355     24.331    9.527 
 C                    -1.653     23.273    10.603 
 C                    -0.781     23.343    11.865 
 C                    -0.712     24.779    12.432 
 C                    -0.388     25.86     11.38 
 C                     4.682     25.798    5.518 
 C                     4.708     25.196    6.778 
 C                     4.061     25.797    7.859 
 C                     3.35      26.977    7.66 
 N                     0.488     28.18     7.498 
 C                    -0.568     28.637    8.086 
 O                    -1.389     27.808    8.752 
 C                    -0.837     30.059    7.987 
 N                    -1.806     31.022    8.425 
 N                    -0.337     32.096    7.318 
 C                     0.012     30.844    7.311 
 N                     1.172     30.278    6.709 
 N                     2.523     28.721    6.157 
 C                     3.28      27.565    6.391 
 C                     3.98      26.987    5.337 
 H                    -1.973     33.085    8.159 
 H                    -0.541     26.054    8.043 
 H                     0.454     26.776    9.311 
 H                    -2.258     26.125    10.296 
 H                    -0.409     24.042    9.063 
 H                    -2.106     24.282    8.736 
 H                    -1.609     22.271    10.176 
 H                    -2.684     23.422    10.916 
 H                     0.23      23.014    11.618 
 H                    -1.152     22.652    12.623 
 H                    -0.027     24.811    13.273 
 H                    -1.687     25.018    12.862 
 H                    -0.474     26.853    11.824 
 H                     0.671     25.729    11.148 
 H                     5.201     25.356    4.679 
 H                     4.095     25.347    8.844 
 H                     2.833     27.425    8.494 
 H                     0.088     32.896    6.845 
 H                     2.962     29.464    5.631 
 H                     3.971     27.449    4.365 
 S                     5.565     23.649    7.022 
 O                     6.49      23.835    8.142 
 O                     6.074     23.194    5.724 
 H                     4.672     21.494    7.667 
 H                     3.838     22.826    8.509 
 C                     4.227     22.478    7.556 
 H                     3.452     22.47     6.795 
 
 ITRead=  0  0  0  0  0  0  0  0  0  0  0  0  0  0  0  0  0  0  0  0
 ITRead=  0  0  0  0  0  0  0  0  0  0  0  0  0  0  0  0  0  0  0  0
 ITRead=  0  0  0  0  0  0  0  0  0  0  0
 MicOpt= -1 -1 -1 -1 -1 -1 -1 -1 -1 -1 -1 -1 -1 -1 -1 -1 -1 -1 -1 -1
 MicOpt= -1 -1 -1 -1 -1 -1 -1 -1 -1 -1 -1 -1 -1 -1 -1 -1 -1 -1 -1 -1
 MicOpt= -1 -1 -1 -1 -1 -1 -1 -1 -1 -1 -1
 NAtoms=     51 NQM=       51 NQMF=       0 NMMI=      0 NMMIF=      0
                NMic=       0 NMicF=      0.
                    Isotopes and Nuclear Properties:
 (Nuclear quadrupole moments (NQMom) in fm**2, nuclear magnetic moments (NMagM)
  in nuclear magnetons)

  Atom         1           2           3           4           5           6           7           8           9          10
 IAtWgt=          12          12          12          12          12          12          12          12          12          12
 AtmWgt=  12.0000000  12.0000000  12.0000000  12.0000000  12.0000000  12.0000000  12.0000000  12.0000000  12.0000000  12.0000000
 NucSpn=           0           0           0           0           0           0           0           0           0           0
 AtZEff=  -0.0000000  -0.0000000  -0.0000000  -0.0000000  -0.0000000  -0.0000000  -0.0000000  -0.0000000  -0.0000000  -0.0000000
 NQMom=    0.0000000   0.0000000   0.0000000   0.0000000   0.0000000   0.0000000   0.0000000   0.0000000   0.0000000   0.0000000
 NMagM=    0.0000000   0.0000000   0.0000000   0.0000000   0.0000000   0.0000000   0.0000000   0.0000000   0.0000000   0.0000000
 AtZNuc=   6.0000000   6.0000000   6.0000000   6.0000000   6.0000000   6.0000000   6.0000000   6.0000000   6.0000000   6.0000000

  Atom        11          12          13          14          15          16          17          18          19          20
 IAtWgt=          12          12          12          14          12          16          12          14          14          12
 AtmWgt=  12.0000000  12.0000000  12.0000000  14.0030740  12.0000000  15.9949146  12.0000000  14.0030740  14.0030740  12.0000000
 NucSpn=           0           0           0           2           0           0           0           2           2           0
 AtZEff=  -0.0000000  -0.0000000  -0.0000000  -0.0000000  -0.0000000  -0.0000000  -0.0000000  -0.0000000  -0.0000000  -0.0000000
 NQMom=    0.0000000   0.0000000   0.0000000   2.0440000   0.0000000   0.0000000   0.0000000   2.0440000   2.0440000   0.0000000
 NMagM=    0.0000000   0.0000000   0.0000000   0.4037610   0.0000000   0.0000000   0.0000000   0.4037610   0.4037610   0.0000000
 AtZNuc=   6.0000000   6.0000000   6.0000000   7.0000000   6.0000000   8.0000000   6.0000000   7.0000000   7.0000000   6.0000000

  Atom        21          22          23          24          25          26          27          28          29          30
 IAtWgt=          14          14          12          12           1           1           1           1           1           1
 AtmWgt=  14.0030740  14.0030740  12.0000000  12.0000000   1.0078250   1.0078250   1.0078250   1.0078250   1.0078250   1.0078250
 NucSpn=           2           2           0           0           1           1           1           1           1           1
 AtZEff=  -0.0000000  -0.0000000  -0.0000000  -0.0000000  -0.0000000  -0.0000000  -0.0000000  -0.0000000  -0.0000000  -0.0000000
 NQMom=    2.0440000   2.0440000   0.0000000   0.0000000   0.0000000   0.0000000   0.0000000   0.0000000   0.0000000   0.0000000
 NMagM=    0.4037610   0.4037610   0.0000000   0.0000000   2.7928460   2.7928460   2.7928460   2.7928460   2.7928460   2.7928460
 AtZNuc=   7.0000000   7.0000000   6.0000000   6.0000000   1.0000000   1.0000000   1.0000000   1.0000000   1.0000000   1.0000000

  Atom        31          32          33          34          35          36          37          38          39          40
 IAtWgt=           1           1           1           1           1           1           1           1           1           1
 AtmWgt=   1.0078250   1.0078250   1.0078250   1.0078250   1.0078250   1.0078250   1.0078250   1.0078250   1.0078250   1.0078250
 NucSpn=           1           1           1           1           1           1           1           1           1           1
 AtZEff=  -0.0000000  -0.0000000  -0.0000000  -0.0000000  -0.0000000  -0.0000000  -0.0000000  -0.0000000  -0.0000000  -0.0000000
 NQMom=    0.0000000   0.0000000   0.0000000   0.0000000   0.0000000   0.0000000   0.0000000   0.0000000   0.0000000   0.0000000
 NMagM=    2.7928460   2.7928460   2.7928460   2.7928460   2.7928460   2.7928460   2.7928460   2.7928460   2.7928460   2.7928460
 AtZNuc=   1.0000000   1.0000000   1.0000000   1.0000000   1.0000000   1.0000000   1.0000000   1.0000000   1.0000000   1.0000000

  Atom        41          42          43          44          45          46          47          48          49          50
 IAtWgt=           1           1           1           1          32          16          16           1           1          12
 AtmWgt=   1.0078250   1.0078250   1.0078250   1.0078250  31.9720718  15.9949146  15.9949146   1.0078250   1.0078250  12.0000000
 NucSpn=           1           1           1           1           0           0           0           1           1           0
 AtZEff=  -0.0000000  -0.0000000  -0.0000000  -0.0000000  -0.0000000  -0.0000000  -0.0000000  -0.0000000  -0.0000000  -0.0000000
 NQMom=    0.0000000   0.0000000   0.0000000   0.0000000   0.0000000   0.0000000   0.0000000   0.0000000   0.0000000   0.0000000
 NMagM=    2.7928460   2.7928460   2.7928460   2.7928460   0.0000000   0.0000000   0.0000000   2.7928460   2.7928460   0.0000000
 AtZNuc=   1.0000000   1.0000000   1.0000000   1.0000000  16.0000000   8.0000000   8.0000000   1.0000000   1.0000000   6.0000000

  Atom        51
 IAtWgt=           1
 AtmWgt=   1.0078250
 NucSpn=           1
 AtZEff=  -0.0000000
 NQMom=    0.0000000
 NMagM=    2.7928460
 AtZNuc=   1.0000000
 Leave Link  101 at Thu Jan 30 14:39:58 2025, MaxMem=   104857600 cpu:               0.1 elap:               0.2
 (Enter /home/pb777/GAUSSIAN/g16/l103.exe)

 GradGradGradGradGradGradGradGradGradGradGradGradGradGradGradGradGradGrad
 Berny optimization.
 Initialization pass.
                           ----------------------------
                           !    Initial Parameters    !
                           ! (Angstroms and Degrees)  !
 --------------------------                            --------------------------
 ! Name  Definition              Value          Derivative Info.                !
 --------------------------------------------------------------------------------
 ! R1    R(1,14)                 1.461          calculate D2E/DX2 analytically  !
 ! R2    R(1,21)                 1.2702         calculate D2E/DX2 analytically  !
 ! R3    R(1,22)                 1.2975         calculate D2E/DX2 analytically  !
 ! R4    R(2,18)                 1.2659         calculate D2E/DX2 analytically  !
 ! R5    R(2,19)                 1.3112         calculate D2E/DX2 analytically  !
 ! R6    R(2,25)                 1.0707         calculate D2E/DX2 analytically  !
 ! R7    R(3,4)                  1.5489         calculate D2E/DX2 analytically  !
 ! R8    R(3,16)                 1.4498         calculate D2E/DX2 analytically  !
 ! R9    R(3,26)                 1.0963         calculate D2E/DX2 analytically  !
 ! R10   R(3,27)                 1.0986         calculate D2E/DX2 analytically  !
 ! R11   R(4,5)                  1.5427         calculate D2E/DX2 analytically  !
 ! R12   R(4,9)                  1.5618         calculate D2E/DX2 analytically  !
 ! R13   R(4,28)                 1.0911         calculate D2E/DX2 analytically  !
 ! R14   R(5,6)                  1.5382         calculate D2E/DX2 analytically  !
 ! R15   R(5,29)                 1.0926         calculate D2E/DX2 analytically  !
 ! R16   R(5,30)                 1.0918         calculate D2E/DX2 analytically  !
 ! R17   R(6,7)                  1.5356         calculate D2E/DX2 analytically  !
 ! R18   R(6,31)                 1.0901         calculate D2E/DX2 analytically  !
 ! R19   R(6,32)                 1.0877         calculate D2E/DX2 analytically  !
 ! R20   R(7,8)                  1.5454         calculate D2E/DX2 analytically  !
 ! R21   R(7,33)                 1.0915         calculate D2E/DX2 analytically  !
 ! R22   R(7,34)                 1.0907         calculate D2E/DX2 analytically  !
 ! R23   R(8,9)                  1.5428         calculate D2E/DX2 analytically  !
 ! R24   R(8,35)                 1.0851         calculate D2E/DX2 analytically  !
 ! R25   R(8,36)                 1.0921         calculate D2E/DX2 analytically  !
 ! R26   R(9,37)                 1.0911         calculate D2E/DX2 analytically  !
 ! R27   R(9,38)                 1.092          calculate D2E/DX2 analytically  !
 ! R28   R(10,11)                1.3967         calculate D2E/DX2 analytically  !
 ! R29   R(10,24)                1.3926         calculate D2E/DX2 analytically  !
 ! R30   R(10,39)                1.081          calculate D2E/DX2 analytically  !
 ! R31   R(11,12)                1.3958         calculate D2E/DX2 analytically  !
 ! R32   R(11,45)                1.7853         calculate D2E/DX2 analytically  !
 ! R33   R(12,13)                1.3919         calculate D2E/DX2 analytically  !
 ! R34   R(12,40)                1.0835         calculate D2E/DX2 analytically  !
 ! R35   R(13,23)                1.4004         calculate D2E/DX2 analytically  !
 ! R36   R(13,41)                1.0787         calculate D2E/DX2 analytically  !
 ! R37   R(14,15)                1.2922         calculate D2E/DX2 analytically  !
 ! R38   R(15,16)                1.3434         calculate D2E/DX2 analytically  !
 ! R39   R(15,17)                1.4506         calculate D2E/DX2 analytically  !
 ! R40   R(17,18)                1.4346         calculate D2E/DX2 analytically  !
 ! R41   R(17,20)                1.3394         calculate D2E/DX2 analytically  !
 ! R42   R(19,20)                1.2998         calculate D2E/DX2 analytically  !
 ! R43   R(19,42)                1.0219         calculate D2E/DX2 analytically  !
 ! R44   R(20,21)                1.4242         calculate D2E/DX2 analytically  !
 ! R45   R(22,23)                1.4015         calculate D2E/DX2 analytically  !
 ! R46   R(22,43)                1.0107         calculate D2E/DX2 analytically  !
 ! R47   R(23,24)                1.391          calculate D2E/DX2 analytically  !
 ! R48   R(24,44)                1.0762         calculate D2E/DX2 analytically  !
 ! R49   R(45,46)                1.4645         calculate D2E/DX2 analytically  !
 ! R50   R(45,47)                1.4666         calculate D2E/DX2 analytically  !
 ! R51   R(45,50)                1.8565         calculate D2E/DX2 analytically  !
 ! R52   R(48,50)                1.0856         calculate D2E/DX2 analytically  !
 ! R53   R(49,50)                1.0866         calculate D2E/DX2 analytically  !
 ! R54   R(50,51)                1.0862         calculate D2E/DX2 analytically  !
 ! A1    A(14,1,21)            118.0237         calculate D2E/DX2 analytically  !
 ! A2    A(14,1,22)            129.5499         calculate D2E/DX2 analytically  !
 ! A3    A(21,1,22)            112.4195         calculate D2E/DX2 analytically  !
 ! A4    A(18,2,19)            111.4686         calculate D2E/DX2 analytically  !
 ! A5    A(18,2,25)            126.3224         calculate D2E/DX2 analytically  !
 ! A6    A(19,2,25)            122.1965         calculate D2E/DX2 analytically  !
 ! A7    A(4,3,16)             108.8423         calculate D2E/DX2 analytically  !
 ! A8    A(4,3,26)             109.5696         calculate D2E/DX2 analytically  !
 ! A9    A(4,3,27)             105.4848         calculate D2E/DX2 analytically  !
 ! A10   A(16,3,26)            108.2318         calculate D2E/DX2 analytically  !
 ! A11   A(16,3,27)            117.3875         calculate D2E/DX2 analytically  !
 ! A12   A(26,3,27)            107.1467         calculate D2E/DX2 analytically  !
 ! A13   A(3,4,5)              106.8132         calculate D2E/DX2 analytically  !
 ! A14   A(3,4,9)              108.7409         calculate D2E/DX2 analytically  !
 ! A15   A(3,4,28)             110.9167         calculate D2E/DX2 analytically  !
 ! A16   A(5,4,9)              113.059          calculate D2E/DX2 analytically  !
 ! A17   A(5,4,28)             108.2581         calculate D2E/DX2 analytically  !
 ! A18   A(9,4,28)             109.0551         calculate D2E/DX2 analytically  !
 ! A19   A(4,5,6)              113.7174         calculate D2E/DX2 analytically  !
 ! A20   A(4,5,29)             109.8638         calculate D2E/DX2 analytically  !
 ! A21   A(4,5,30)             110.4108         calculate D2E/DX2 analytically  !
 ! A22   A(6,5,29)             106.4326         calculate D2E/DX2 analytically  !
 ! A23   A(6,5,30)             110.0394         calculate D2E/DX2 analytically  !
 ! A24   A(29,5,30)            106.0225         calculate D2E/DX2 analytically  !
 ! A25   A(5,6,7)              115.6925         calculate D2E/DX2 analytically  !
 ! A26   A(5,6,31)             110.5129         calculate D2E/DX2 analytically  !
 ! A27   A(5,6,32)             106.9005         calculate D2E/DX2 analytically  !
 ! A28   A(7,6,31)             109.9325         calculate D2E/DX2 analytically  !
 ! A29   A(7,6,32)             107.1888         calculate D2E/DX2 analytically  !
 ! A30   A(31,6,32)            106.0749         calculate D2E/DX2 analytically  !
 ! A31   A(6,7,8)              111.6688         calculate D2E/DX2 analytically  !
 ! A32   A(6,7,33)             109.0426         calculate D2E/DX2 analytically  !
 ! A33   A(6,7,34)             110.4329         calculate D2E/DX2 analytically  !
 ! A34   A(8,7,33)             108.7686         calculate D2E/DX2 analytically  !
 ! A35   A(8,7,34)             110.4189         calculate D2E/DX2 analytically  !
 ! A36   A(33,7,34)            106.3414         calculate D2E/DX2 analytically  !
 ! A37   A(7,8,9)              114.2214         calculate D2E/DX2 analytically  !
 ! A38   A(7,8,35)             109.8726         calculate D2E/DX2 analytically  !
 ! A39   A(7,8,36)             107.9358         calculate D2E/DX2 analytically  !
 ! A40   A(9,8,35)             112.0387         calculate D2E/DX2 analytically  !
 ! A41   A(9,8,36)             107.616          calculate D2E/DX2 analytically  !
 ! A42   A(35,8,36)            104.5939         calculate D2E/DX2 analytically  !
 ! A43   A(4,9,8)              114.1745         calculate D2E/DX2 analytically  !
 ! A44   A(4,9,37)             110.4349         calculate D2E/DX2 analytically  !
 ! A45   A(4,9,38)             110.5735         calculate D2E/DX2 analytically  !
 ! A46   A(8,9,37)             110.0986         calculate D2E/DX2 analytically  !
 ! A47   A(8,9,38)             105.3356         calculate D2E/DX2 analytically  !
 ! A48   A(37,9,38)            105.7868         calculate D2E/DX2 analytically  !
 ! A49   A(11,10,24)           119.647          calculate D2E/DX2 analytically  !
 ! A50   A(11,10,39)           120.9969         calculate D2E/DX2 analytically  !
 ! A51   A(24,10,39)           119.356          calculate D2E/DX2 analytically  !
 ! A52   A(10,11,12)           120.2948         calculate D2E/DX2 analytically  !
 ! A53   A(10,11,45)           120.3802         calculate D2E/DX2 analytically  !
 ! A54   A(12,11,45)           119.3249         calculate D2E/DX2 analytically  !
 ! A55   A(11,12,13)           119.4095         calculate D2E/DX2 analytically  !
 ! A56   A(11,12,40)           120.7099         calculate D2E/DX2 analytically  !
 ! A57   A(13,12,40)           119.8742         calculate D2E/DX2 analytically  !
 ! A58   A(12,13,23)           120.7334         calculate D2E/DX2 analytically  !
 ! A59   A(12,13,41)           119.102          calculate D2E/DX2 analytically  !
 ! A60   A(23,13,41)           120.1518         calculate D2E/DX2 analytically  !
 ! A61   A(1,14,15)            122.8931         calculate D2E/DX2 analytically  !
 ! A62   A(14,15,16)           120.4487         calculate D2E/DX2 analytically  !
 ! A63   A(14,15,17)           117.8516         calculate D2E/DX2 analytically  !
 ! A64   A(16,15,17)           121.696          calculate D2E/DX2 analytically  !
 ! A65   A(3,16,15)            103.9239         calculate D2E/DX2 analytically  !
 ! A66   A(15,17,18)           139.6791         calculate D2E/DX2 analytically  !
 ! A67   A(15,17,20)           119.4344         calculate D2E/DX2 analytically  !
 ! A68   A(18,17,20)           100.8835         calculate D2E/DX2 analytically  !
 ! A69   A(2,18,17)            108.3309         calculate D2E/DX2 analytically  !
 ! A70   A(2,19,20)            106.2584         calculate D2E/DX2 analytically  !
 ! A71   A(2,19,42)            123.8183         calculate D2E/DX2 analytically  !
 ! A72   A(20,19,42)           129.7848         calculate D2E/DX2 analytically  !
 ! A73   A(17,20,19)           113.056          calculate D2E/DX2 analytically  !
 ! A74   A(17,20,21)           119.7814         calculate D2E/DX2 analytically  !
 ! A75   A(19,20,21)           127.1419         calculate D2E/DX2 analytically  !
 ! A76   A(1,21,20)            121.9969         calculate D2E/DX2 analytically  !
 ! A77   A(1,22,23)            125.3591         calculate D2E/DX2 analytically  !
 ! A78   A(1,22,43)            115.8696         calculate D2E/DX2 analytically  !
 ! A79   A(23,22,43)           117.3012         calculate D2E/DX2 analytically  !
 ! A80   A(13,23,22)           121.6447         calculate D2E/DX2 analytically  !
 ! A81   A(13,23,24)           119.1438         calculate D2E/DX2 analytically  !
 ! A82   A(22,23,24)           119.2115         calculate D2E/DX2 analytically  !
 ! A83   A(10,24,23)           120.6613         calculate D2E/DX2 analytically  !
 ! A84   A(10,24,44)           119.2167         calculate D2E/DX2 analytically  !
 ! A85   A(23,24,44)           120.1149         calculate D2E/DX2 analytically  !
 ! A86   A(11,45,46)           107.3182         calculate D2E/DX2 analytically  !
 ! A87   A(11,45,47)           108.3292         calculate D2E/DX2 analytically  !
 ! A88   A(11,45,50)           103.8815         calculate D2E/DX2 analytically  !
 ! A89   A(46,45,47)           119.8056         calculate D2E/DX2 analytically  !
 ! A90   A(46,45,50)           108.3822         calculate D2E/DX2 analytically  !
 ! A91   A(47,45,50)           107.9998         calculate D2E/DX2 analytically  !
 ! A92   A(45,50,48)           107.8            calculate D2E/DX2 analytically  !
 ! A93   A(45,50,49)           107.9557         calculate D2E/DX2 analytically  !
 ! A94   A(45,50,51)           108.5027         calculate D2E/DX2 analytically  !
 ! A95   A(48,50,49)           110.326          calculate D2E/DX2 analytically  !
 ! A96   A(48,50,51)           110.942          calculate D2E/DX2 analytically  !
 ! A97   A(49,50,51)           111.1867         calculate D2E/DX2 analytically  !
 ! D1    D(21,1,14,15)          -0.3723         calculate D2E/DX2 analytically  !
 ! D2    D(22,1,14,15)         178.5919         calculate D2E/DX2 analytically  !
 ! D3    D(14,1,21,20)          -0.941          calculate D2E/DX2 analytically  !
 ! D4    D(22,1,21,20)         179.9229         calculate D2E/DX2 analytically  !
 ! D5    D(14,1,22,23)         -20.5697         calculate D2E/DX2 analytically  !
 ! D6    D(14,1,22,43)         173.7023         calculate D2E/DX2 analytically  !
 ! D7    D(21,1,22,23)         158.4412         calculate D2E/DX2 analytically  !
 ! D8    D(21,1,22,43)          -7.2868         calculate D2E/DX2 analytically  !
 ! D9    D(19,2,18,17)           0.3509         calculate D2E/DX2 analytically  !
 ! D10   D(25,2,18,17)         179.0796         calculate D2E/DX2 analytically  !
 ! D11   D(18,2,19,20)          -0.0571         calculate D2E/DX2 analytically  !
 ! D12   D(18,2,19,42)         176.0344         calculate D2E/DX2 analytically  !
 ! D13   D(25,2,19,20)        -178.8468         calculate D2E/DX2 analytically  !
 ! D14   D(25,2,19,42)          -2.7553         calculate D2E/DX2 analytically  !
 ! D15   D(16,3,4,5)           129.1727         calculate D2E/DX2 analytically  !
 ! D16   D(16,3,4,9)          -108.5107         calculate D2E/DX2 analytically  !
 ! D17   D(16,3,4,28)           11.4065         calculate D2E/DX2 analytically  !
 ! D18   D(26,3,4,5)            10.9985         calculate D2E/DX2 analytically  !
 ! D19   D(26,3,4,9)           133.3151         calculate D2E/DX2 analytically  !
 ! D20   D(26,3,4,28)         -106.7678         calculate D2E/DX2 analytically  !
 ! D21   D(27,3,4,5)          -104.036          calculate D2E/DX2 analytically  !
 ! D22   D(27,3,4,9)            18.2806         calculate D2E/DX2 analytically  !
 ! D23   D(27,3,4,28)          138.1978         calculate D2E/DX2 analytically  !
 ! D24   D(4,3,16,15)          163.4859         calculate D2E/DX2 analytically  !
 ! D25   D(26,3,16,15)         -77.4995         calculate D2E/DX2 analytically  !
 ! D26   D(27,3,16,15)          43.8488         calculate D2E/DX2 analytically  !
 ! D27   D(3,4,5,6)            164.9645         calculate D2E/DX2 analytically  !
 ! D28   D(3,4,5,29)            45.8044         calculate D2E/DX2 analytically  !
 ! D29   D(3,4,5,30)           -70.7837         calculate D2E/DX2 analytically  !
 ! D30   D(9,4,5,6)             45.3994         calculate D2E/DX2 analytically  !
 ! D31   D(9,4,5,29)           -73.7607         calculate D2E/DX2 analytically  !
 ! D32   D(9,4,5,30)           169.6512         calculate D2E/DX2 analytically  !
 ! D33   D(28,4,5,6)           -75.5363         calculate D2E/DX2 analytically  !
 ! D34   D(28,4,5,29)          165.3036         calculate D2E/DX2 analytically  !
 ! D35   D(28,4,5,30)           48.7155         calculate D2E/DX2 analytically  !
 ! D36   D(3,4,9,8)           -164.5526         calculate D2E/DX2 analytically  !
 ! D37   D(3,4,9,37)            70.7518         calculate D2E/DX2 analytically  !
 ! D38   D(3,4,9,38)           -45.9892         calculate D2E/DX2 analytically  !
 ! D39   D(5,4,9,8)            -46.1023         calculate D2E/DX2 analytically  !
 ! D40   D(5,4,9,37)          -170.7978         calculate D2E/DX2 analytically  !
 ! D41   D(5,4,9,38)            72.4611         calculate D2E/DX2 analytically  !
 ! D42   D(28,4,9,8)            74.3803         calculate D2E/DX2 analytically  !
 ! D43   D(28,4,9,37)          -50.3152         calculate D2E/DX2 analytically  !
 ! D44   D(28,4,9,38)         -167.0562         calculate D2E/DX2 analytically  !
 ! D45   D(4,5,6,7)            -48.1359         calculate D2E/DX2 analytically  !
 ! D46   D(4,5,6,31)          -173.8634         calculate D2E/DX2 analytically  !
 ! D47   D(4,5,6,32)            71.1339         calculate D2E/DX2 analytically  !
 ! D48   D(29,5,6,7)            72.9625         calculate D2E/DX2 analytically  !
 ! D49   D(29,5,6,31)          -52.765          calculate D2E/DX2 analytically  !
 ! D50   D(29,5,6,32)         -167.7677         calculate D2E/DX2 analytically  !
 ! D51   D(30,5,6,7)          -172.588          calculate D2E/DX2 analytically  !
 ! D52   D(30,5,6,31)           61.6846         calculate D2E/DX2 analytically  !
 ! D53   D(30,5,6,32)          -53.3181         calculate D2E/DX2 analytically  !
 ! D54   D(5,6,7,8)             48.8375         calculate D2E/DX2 analytically  !
 ! D55   D(5,6,7,33)           -71.3873         calculate D2E/DX2 analytically  !
 ! D56   D(5,6,7,34)           172.1111         calculate D2E/DX2 analytically  !
 ! D57   D(31,6,7,8)           174.8605         calculate D2E/DX2 analytically  !
 ! D58   D(31,6,7,33)           54.6357         calculate D2E/DX2 analytically  !
 ! D59   D(31,6,7,34)          -61.8659         calculate D2E/DX2 analytically  !
 ! D60   D(32,6,7,8)           -70.2741         calculate D2E/DX2 analytically  !
 ! D61   D(32,6,7,33)          169.5011         calculate D2E/DX2 analytically  !
 ! D62   D(32,6,7,34)           52.9995         calculate D2E/DX2 analytically  !
 ! D63   D(6,7,8,9)            -48.5808         calculate D2E/DX2 analytically  !
 ! D64   D(6,7,8,35)          -175.4589         calculate D2E/DX2 analytically  !
 ! D65   D(6,7,8,36)            71.0503         calculate D2E/DX2 analytically  !
 ! D66   D(33,7,8,9)            71.8045         calculate D2E/DX2 analytically  !
 ! D67   D(33,7,8,35)          -55.0736         calculate D2E/DX2 analytically  !
 ! D68   D(33,7,8,36)         -168.5644         calculate D2E/DX2 analytically  !
 ! D69   D(34,7,8,9)          -171.8623         calculate D2E/DX2 analytically  !
 ! D70   D(34,7,8,35)           61.2596         calculate D2E/DX2 analytically  !
 ! D71   D(34,7,8,36)          -52.2312         calculate D2E/DX2 analytically  !
 ! D72   D(7,8,9,4)             48.3294         calculate D2E/DX2 analytically  !
 ! D73   D(7,8,9,37)           173.2037         calculate D2E/DX2 analytically  !
 ! D74   D(7,8,9,38)           -73.1715         calculate D2E/DX2 analytically  !
 ! D75   D(35,8,9,4)           174.0786         calculate D2E/DX2 analytically  !
 ! D76   D(35,8,9,37)          -61.0471         calculate D2E/DX2 analytically  !
 ! D77   D(35,8,9,38)           52.5778         calculate D2E/DX2 analytically  !
 ! D78   D(36,8,9,4)           -71.4813         calculate D2E/DX2 analytically  !
 ! D79   D(36,8,9,37)           53.393          calculate D2E/DX2 analytically  !
 ! D80   D(36,8,9,38)          167.0179         calculate D2E/DX2 analytically  !
 ! D81   D(24,10,11,12)         -1.5016         calculate D2E/DX2 analytically  !
 ! D82   D(24,10,11,45)        178.3497         calculate D2E/DX2 analytically  !
 ! D83   D(39,10,11,12)        178.3712         calculate D2E/DX2 analytically  !
 ! D84   D(39,10,11,45)         -1.7775         calculate D2E/DX2 analytically  !
 ! D85   D(11,10,24,23)         -1.4463         calculate D2E/DX2 analytically  !
 ! D86   D(11,10,24,44)        179.5219         calculate D2E/DX2 analytically  !
 ! D87   D(39,10,24,23)        178.6788         calculate D2E/DX2 analytically  !
 ! D88   D(39,10,24,44)         -0.353          calculate D2E/DX2 analytically  !
 ! D89   D(10,11,12,13)          2.2569         calculate D2E/DX2 analytically  !
 ! D90   D(10,11,12,40)       -178.6612         calculate D2E/DX2 analytically  !
 ! D91   D(45,11,12,13)       -177.596          calculate D2E/DX2 analytically  !
 ! D92   D(45,11,12,40)          1.4859         calculate D2E/DX2 analytically  !
 ! D93   D(10,11,45,46)        127.0679         calculate D2E/DX2 analytically  !
 ! D94   D(10,11,45,47)         -3.6087         calculate D2E/DX2 analytically  !
 ! D95   D(10,11,45,50)       -118.2662         calculate D2E/DX2 analytically  !
 ! D96   D(12,11,45,46)        -53.0793         calculate D2E/DX2 analytically  !
 ! D97   D(12,11,45,47)        176.244          calculate D2E/DX2 analytically  !
 ! D98   D(12,11,45,50)         61.5865         calculate D2E/DX2 analytically  !
 ! D99   D(11,12,13,23)         -0.0957         calculate D2E/DX2 analytically  !
 ! D100  D(11,12,13,41)        178.6009         calculate D2E/DX2 analytically  !
 ! D101  D(40,12,13,23)       -179.1854         calculate D2E/DX2 analytically  !
 ! D102  D(40,12,13,41)         -0.4888         calculate D2E/DX2 analytically  !
 ! D103  D(12,13,23,22)        177.2313         calculate D2E/DX2 analytically  !
 ! D104  D(12,13,23,24)         -2.7946         calculate D2E/DX2 analytically  !
 ! D105  D(41,13,23,22)         -1.4517         calculate D2E/DX2 analytically  !
 ! D106  D(41,13,23,24)        178.5224         calculate D2E/DX2 analytically  !
 ! D107  D(1,14,15,16)        -179.5335         calculate D2E/DX2 analytically  !
 ! D108  D(1,14,15,17)           1.1588         calculate D2E/DX2 analytically  !
 ! D109  D(14,15,16,3)          18.2854         calculate D2E/DX2 analytically  !
 ! D110  D(17,15,16,3)        -162.4339         calculate D2E/DX2 analytically  !
 ! D111  D(14,15,17,18)       -179.8954         calculate D2E/DX2 analytically  !
 ! D112  D(14,15,17,20)         -0.6675         calculate D2E/DX2 analytically  !
 ! D113  D(16,15,17,18)          0.806          calculate D2E/DX2 analytically  !
 ! D114  D(16,15,17,20)       -179.9661         calculate D2E/DX2 analytically  !
 ! D115  D(15,17,18,2)         178.8317         calculate D2E/DX2 analytically  !
 ! D116  D(20,17,18,2)          -0.4835         calculate D2E/DX2 analytically  !
 ! D117  D(15,17,20,19)       -179.0241         calculate D2E/DX2 analytically  !
 ! D118  D(15,17,20,21)         -0.5623         calculate D2E/DX2 analytically  !
 ! D119  D(18,17,20,19)          0.4672         calculate D2E/DX2 analytically  !
 ! D120  D(18,17,20,21)        178.9289         calculate D2E/DX2 analytically  !
 ! D121  D(2,19,20,17)          -0.2906         calculate D2E/DX2 analytically  !
 ! D122  D(2,19,20,21)        -178.6158         calculate D2E/DX2 analytically  !
 ! D123  D(42,19,20,17)       -176.0643         calculate D2E/DX2 analytically  !
 ! D124  D(42,19,20,21)          5.6105         calculate D2E/DX2 analytically  !
 ! D125  D(17,20,21,1)           1.4077         calculate D2E/DX2 analytically  !
 ! D126  D(19,20,21,1)         179.6321         calculate D2E/DX2 analytically  !
 ! D127  D(1,22,23,13)         -32.3329         calculate D2E/DX2 analytically  !
 ! D128  D(1,22,23,24)         147.6931         calculate D2E/DX2 analytically  !
 ! D129  D(43,22,23,13)        133.2116         calculate D2E/DX2 analytically  !
 ! D130  D(43,22,23,24)        -46.7624         calculate D2E/DX2 analytically  !
 ! D131  D(13,23,24,10)          3.5661         calculate D2E/DX2 analytically  !
 ! D132  D(13,23,24,44)       -177.4108         calculate D2E/DX2 analytically  !
 ! D133  D(22,23,24,10)       -176.4592         calculate D2E/DX2 analytically  !
 ! D134  D(22,23,24,44)          2.5639         calculate D2E/DX2 analytically  !
 ! D135  D(11,45,50,48)        176.726          calculate D2E/DX2 analytically  !
 ! D136  D(11,45,50,49)        -64.0943         calculate D2E/DX2 analytically  !
 ! D137  D(11,45,50,51)         56.5075         calculate D2E/DX2 analytically  !
 ! D138  D(46,45,50,48)        -69.3675         calculate D2E/DX2 analytically  !
 ! D139  D(46,45,50,49)         49.8122         calculate D2E/DX2 analytically  !
 ! D140  D(46,45,50,51)        170.414          calculate D2E/DX2 analytically  !
 ! D141  D(47,45,50,48)         61.8343         calculate D2E/DX2 analytically  !
 ! D142  D(47,45,50,49)       -178.986          calculate D2E/DX2 analytically  !
 ! D143  D(47,45,50,51)        -58.3842         calculate D2E/DX2 analytically  !
 --------------------------------------------------------------------------------
 Trust Radius=3.00D-01 FncErr=1.00D-07 GrdErr=1.00D-07 EigMax=2.50D+02 EigMin=1.00D-04
 Number of steps in this run=    304 maximum allowed number of steps=    306.
 GradGradGradGradGradGradGradGradGradGradGradGradGradGradGradGradGradGrad

 Leave Link  103 at Thu Jan 30 14:39:58 2025, MaxMem=   104857600 cpu:               0.0 elap:               0.0
 (Enter /home/pb777/GAUSSIAN/g16/l202.exe)
 Stoichiometry    C19H23N5O3S
 Framework group  C1[X(C19H23N5O3S)]
 Deg. of freedom   147
 Full point group                 C1      NOp   1
 Largest Abelian subgroup         C1      NOp   1
 Largest concise Abelian subgroup C1      NOp   1
                         Standard orientation:                         
 ---------------------------------------------------------------------
 Center     Atomic      Atomic             Coordinates (Angstroms)
 Number     Number       Type             X           Y           Z
 ---------------------------------------------------------------------
      1          6           0        1.477709   -2.285495   -0.185422
      2          6           0        5.861482   -2.209423    0.409031
      3          6           0        1.670453    1.532531   -0.483616
      4          6           0        1.759598    3.070775   -0.325955
      5          6           0        0.774127    3.681523   -1.343732
      6          6           0        0.457779    5.164461   -1.085346
      7          6           0        0.090968    5.524614    0.361605
      8          6           0        1.104539    4.938143    1.370105
      9          6           0        1.421732    3.444074    1.152418
     10          6           0       -3.258985   -2.473319   -0.621600
     11          6           0       -3.470148   -1.309175    0.120599
     12          6           0       -2.417005   -0.721350    0.823253
     13          6           0       -1.144234   -1.278656    0.739665
     14          7           0        1.697852   -0.865693   -0.450506
     15          6           0        2.864885   -0.313872   -0.393452
     16          8           0        3.009747    0.999238   -0.637574
     17          6           0        3.999582   -1.159608   -0.074956
     18          7           0        5.419514   -1.062668    0.105515
     19          7           0        4.898906   -3.098779    0.452078
     20          6           0        3.803245   -2.463569    0.159864
     21          7           0        2.485594   -3.001427    0.106343
     22          7           0        0.371413   -2.963423   -0.181666
     23          6           0       -0.912367   -2.419899   -0.038029
     24          6           0       -1.983583   -3.029036   -0.683358
     25          1           0        6.884382   -2.466483    0.593446
     26          1           0        1.098202    1.288462   -1.386337
     27          1           0        1.083118    1.183065    0.376557
     28          1           0        2.762333    3.429238   -0.563609
     29          1           0       -0.179628    3.150176   -1.301828
     30          1           0        1.147676    3.550439   -2.361259
     31          1           0       -0.321061    5.512746   -1.763855
     32          1           0        1.352845    5.727718   -1.339766
     33          1           0       -0.899802    5.126235    0.587528
     34          1           0        0.020589    6.606772    0.478510
     35          1           0        0.775477    5.141012    2.384054
     36          1           0        2.039726    5.492825    1.268137
     37          1           0        2.227602    3.130987    1.818099
     38          1           0        0.532343    2.907853    1.489940
     39          1           0       -4.072007   -2.952619   -1.148774
     40          1           0       -2.578035    0.169503    1.418509
     41          1           0       -0.329455   -0.807210    1.266373
     42          1           0        5.052053   -4.094931    0.621135
     43          1           0        0.467128   -3.962976   -0.066868
     44          1           0       -1.830257   -3.930508   -1.250940
     45         16           0       -5.087573   -0.555583    0.177438
     46          8           0       -5.438387   -0.382233    1.588643
     47          8           0       -5.979775   -1.311104   -0.708041
     48          1           0       -5.787695    1.619155   -0.621211
     49          1           0       -4.148004    1.675576    0.076623
     50          6           0       -4.823452    1.122889   -0.570633
     51          1           0       -4.399944    0.995365   -1.562695
 ---------------------------------------------------------------------
 Rotational constants (GHZ):           0.1715618           0.1006845           0.0670548
 Leave Link  202 at Thu Jan 30 14:39:58 2025, MaxMem=   104857600 cpu:               0.0 elap:               0.0
 (Enter /home/pb777/GAUSSIAN/g16/l301.exe)
 Standard basis: 6-31G(d) (6D, 7F)
 Ernie: Thresh=  0.10000D-02 Tol=  0.10000D-05 Strict=F.
 There are   470 symmetry adapted cartesian basis functions of A   symmetry.
 There are   470 symmetry adapted basis functions of A   symmetry.
   470 basis functions,   900 primitive gaussians,   470 cartesian basis functions
   106 alpha electrons      106 beta electrons
       nuclear repulsion energy      2733.4033628329 Hartrees.
 IExCor=    0 DFT=F Ex=HF Corr=None ExCW=0 ScaHFX=  1.000000
 ScaDFX=  1.000000  1.000000  1.000000  1.000000 ScalE2=  1.000000  1.000000
 IRadAn=      5 IRanWt=     -1 IRanGd=            0 ICorTp=0 IEmpDi=  4
 NAtoms=   51 NActive=   51 NUniq=   51 SFac= 1.00D+00 NAtFMM=   60 NAOKFM=F Big=F
 Integral buffers will be    131072 words long.
 Raffenetti 1 integral format.
 Two-electron integral symmetry is turned on.
 Leave Link  301 at Thu Jan 30 14:39:58 2025, MaxMem=   104857600 cpu:               0.0 elap:               0.0
 (Enter /home/pb777/GAUSSIAN/g16/l302.exe)
 NPDir=0 NMtPBC=     1 NCelOv=     1 NCel=       1 NClECP=     1 NCelD=      1
         NCelK=      1 NCelE2=     1 NClLst=     1 CellRange=     0.0.
 One-electron integrals computed using PRISM.
 One-electron integral symmetry used in STVInt
 NBasis=   470 RedAO= T EigKep=  4.32D-04  NBF=   470
 NBsUse=   470 1.00D-06 EigRej= -1.00D+00 NBFU=   470
 Leave Link  302 at Thu Jan 30 14:39:58 2025, MaxMem=   104857600 cpu:               0.2 elap:               0.2
 (Enter /home/pb777/GAUSSIAN/g16/l303.exe)
 DipDrv:  MaxL=1.
 Leave Link  303 at Thu Jan 30 14:39:58 2025, MaxMem=   104857600 cpu:               0.0 elap:               0.0
 (Enter /home/pb777/GAUSSIAN/g16/l401.exe)
 ExpMin= 1.17D-01 ExpMax= 2.19D+04 ExpMxC= 3.30D+03 IAcc=3 IRadAn=         5 AccDes= 0.00D+00
 Harris functional with IExCor=  205 and IRadAn=       5 diagonalized for initial guess.
 HarFok:  IExCor=  205 AccDes= 0.00D+00 IRadAn=         5 IDoV= 1 UseB2=F ITyADJ=14
 ICtDFT=  3500011 ScaDFX=  1.000000  1.000000  1.000000  1.000000
 FoFCou: FMM=F IPFlag=           0 FMFlag=      100000 FMFlg1=           0
         NFxFlg=           0 DoJE=T BraDBF=F KetDBF=T FulRan=T
         wScrn=  0.000000 ICntrl=       500 IOpCl=  0 I1Cent=   200000004 NGrid=           0
         NMat0=    1 NMatS0=      1 NMatT0=    0 NMatD0=    1 NMtDS0=    0 NMtDT0=    0
 Petite list used in FoFCou.
 Harris En= -1628.32659057969    
 JPrj=0 DoOrth=F DoCkMO=F.
 Leave Link  401 at Thu Jan 30 14:40:07 2025, MaxMem=   104857600 cpu:               8.7 elap:               8.8
 (Enter /home/pb777/GAUSSIAN/g16/l502.exe)
 Integral symmetry usage will be decided dynamically.
 Closed shell SCF:
 Using DIIS extrapolation, IDIIS=  1040.
 NGot=   104857600 LenX=   104407778 LenY=   104186408
 Requested convergence on RMS density matrix=1.00D-08 within 128 cycles.
 Requested convergence on MAX density matrix=1.00D-06.
 Requested convergence on             energy=1.00D-06.
 No special actions if energy rises.
 Fock matrices will be formed incrementally for  20 cycles.
 Integral accuracy reduced to 1.0D-05 until final iterations.

 Cycle   1  Pass 0  IDiag  1:
 FoFJK:  IHMeth= 1 ICntrl=       0 DoSepK=F KAlg= 0 I1Cent=           0 FoldK=F
 IRaf= 670000000 NMat=       1 IRICut=       1 DoRegI=T DoRafI=F ISym2E= 0 IDoP0=0 IntGTp=1.
 FoFCou: FMM=F IPFlag=           0 FMFlag=      100000 FMFlg1=           0
         NFxFlg=           0 DoJE=F BraDBF=F KetDBF=F FulRan=T
         wScrn=  0.000000 ICntrl=         0 IOpCl=  0 I1Cent=           0 NGrid=           0
         NMat0=    1 NMatS0=      1 NMatT0=    0 NMatD0=    1 NMtDS0=    0 NMtDT0=    0
 Symmetry not used in FoFCou.
 E= -1625.94699615576    
 DIIS: error= 6.61D-02 at cycle   1 NSaved=   1.
 NSaved= 1 IEnMin= 1 EnMin= -1625.94699615576     IErMin= 1 ErrMin= 6.61D-02
 ErrMax= 6.61D-02  0.00D+00 EMaxC= 1.00D-01 BMatC= 1.99D+00 BMatP= 1.99D+00
 IDIUse=3 WtCom= 3.39D-01 WtEn= 6.61D-01
 Coeff-Com:  0.100D+01
 Coeff-En:   0.100D+01
 Coeff:      0.100D+01
 Gap=     0.456 Goal=   None    Shift=    0.000
 GapD=    0.456 DampG=2.000 DampE=0.500 DampFc=1.0000 IDamp=-1.
 RMSDP=3.57D-03 MaxDP=1.77D-01              OVMax= 1.21D-01

 Cycle   2  Pass 0  IDiag  1:
 RMSU=  3.51D-03    CP:  9.60D-01
 E= -1626.87464626820     Delta-E=       -0.927650112438 Rises=F Damp=F
 DIIS: error= 2.00D-02 at cycle   2 NSaved=   2.
 NSaved= 2 IEnMin= 2 EnMin= -1626.87464626820     IErMin= 2 ErrMin= 2.00D-02
 ErrMax= 2.00D-02  0.00D+00 EMaxC= 1.00D-01 BMatC= 2.71D-01 BMatP= 1.99D+00
 IDIUse=3 WtCom= 8.00D-01 WtEn= 2.00D-01
 Coeff-Com:  0.198D+00 0.802D+00
 Coeff-En:   0.000D+00 0.100D+01
 Coeff:      0.158D+00 0.842D+00
 Gap=     0.409 Goal=   None    Shift=    0.000
 RMSDP=1.42D-03 MaxDP=1.73D-01 DE=-9.28D-01 OVMax= 6.60D-02

 Cycle   3  Pass 0  IDiag  1:
 RMSU=  1.18D-03    CP:  9.63D-01  7.74D-01
 E= -1627.06460010020     Delta-E=       -0.189953832003 Rises=F Damp=F
 DIIS: error= 8.99D-03 at cycle   3 NSaved=   3.
 NSaved= 3 IEnMin= 3 EnMin= -1627.06460010020     IErMin= 3 ErrMin= 8.99D-03
 ErrMax= 8.99D-03  0.00D+00 EMaxC= 1.00D-01 BMatC= 4.06D-02 BMatP= 2.71D-01
 IDIUse=3 WtCom= 9.10D-01 WtEn= 8.99D-02
 Coeff-Com: -0.194D-01 0.252D+00 0.767D+00
 Coeff-En:   0.000D+00 0.000D+00 0.100D+01
 Coeff:     -0.176D-01 0.229D+00 0.788D+00
 Gap=     0.390 Goal=   None    Shift=    0.000
 RMSDP=4.18D-04 MaxDP=5.04D-02 DE=-1.90D-01 OVMax= 2.46D-02

 Cycle   4  Pass 0  IDiag  1:
 RMSU=  2.49D-04    CP:  9.62D-01  8.49D-01  8.22D-01
 E= -1627.09599894753     Delta-E=       -0.031398847335 Rises=F Damp=F
 DIIS: error= 2.15D-03 at cycle   4 NSaved=   4.
 NSaved= 4 IEnMin= 4 EnMin= -1627.09599894753     IErMin= 4 ErrMin= 2.15D-03
 ErrMax= 2.15D-03  0.00D+00 EMaxC= 1.00D-01 BMatC= 1.94D-03 BMatP= 4.06D-02
 IDIUse=3 WtCom= 9.79D-01 WtEn= 2.15D-02
 Coeff-Com: -0.105D-01 0.446D-01 0.249D+00 0.717D+00
 Coeff-En:   0.000D+00 0.000D+00 0.000D+00 0.100D+01
 Coeff:     -0.102D-01 0.436D-01 0.244D+00 0.723D+00
 Gap=     0.394 Goal=   None    Shift=    0.000
 RMSDP=1.04D-04 MaxDP=8.05D-03 DE=-3.14D-02 OVMax= 6.90D-03

 Cycle   5  Pass 0  IDiag  1:
 RMSU=  7.14D-05    CP:  9.62D-01  8.49D-01  8.74D-01  8.23D-01
 E= -1627.09775570814     Delta-E=       -0.001756760608 Rises=F Damp=F
 DIIS: error= 3.70D-04 at cycle   5 NSaved=   5.
 NSaved= 5 IEnMin= 5 EnMin= -1627.09775570814     IErMin= 5 ErrMin= 3.70D-04
 ErrMax= 3.70D-04  0.00D+00 EMaxC= 1.00D-01 BMatC= 1.11D-04 BMatP= 1.94D-03
 IDIUse=3 WtCom= 9.96D-01 WtEn= 3.70D-03
 Coeff-Com:  0.781D-03-0.171D-01-0.484D-01 0.771D-01 0.988D+00
 Coeff-En:   0.000D+00 0.000D+00 0.000D+00 0.000D+00 0.100D+01
 Coeff:      0.778D-03-0.171D-01-0.482D-01 0.768D-01 0.988D+00
 Gap=     0.393 Goal=   None    Shift=    0.000
 RMSDP=4.01D-05 MaxDP=1.51D-03 DE=-1.76D-03 OVMax= 3.84D-03

 Cycle   6  Pass 0  IDiag  1:
 RMSU=  2.54D-05    CP:  9.62D-01  8.50D-01  8.87D-01  9.27D-01  1.10D+00
 E= -1627.09794493055     Delta-E=       -0.000189222405 Rises=F Damp=F
 DIIS: error= 1.66D-04 at cycle   6 NSaved=   6.
 NSaved= 6 IEnMin= 6 EnMin= -1627.09794493055     IErMin= 6 ErrMin= 1.66D-04
 ErrMax= 1.66D-04  0.00D+00 EMaxC= 1.00D-01 BMatC= 1.42D-05 BMatP= 1.11D-04
 IDIUse=3 WtCom= 9.98D-01 WtEn= 1.66D-03
 Coeff-Com:  0.128D-02-0.861D-02-0.382D-01-0.664D-01 0.178D+00 0.934D+00
 Coeff-En:   0.000D+00 0.000D+00 0.000D+00 0.000D+00 0.000D+00 0.100D+01
 Coeff:      0.128D-02-0.860D-02-0.382D-01-0.663D-01 0.177D+00 0.935D+00
 Gap=     0.394 Goal=   None    Shift=    0.000
 RMSDP=1.57D-05 MaxDP=1.00D-03 DE=-1.89D-04 OVMax= 1.69D-03

 Cycle   7  Pass 0  IDiag  1:
 RMSU=  9.06D-06    CP:  9.62D-01  8.50D-01  8.90D-01  9.48D-01  1.25D+00
                    CP:  1.08D+00
 E= -1627.09797774236     Delta-E=       -0.000032811811 Rises=F Damp=F
 DIIS: error= 5.69D-05 at cycle   7 NSaved=   7.
 NSaved= 7 IEnMin= 7 EnMin= -1627.09797774236     IErMin= 7 ErrMin= 5.69D-05
 ErrMax= 5.69D-05  0.00D+00 EMaxC= 1.00D-01 BMatC= 2.32D-06 BMatP= 1.42D-05
 IDIUse=1 WtCom= 1.00D+00 WtEn= 0.00D+00
 Coeff-Com:  0.853D-04 0.855D-03 0.459D-03-0.206D-01-0.101D+00 0.146D+00
 Coeff-Com:  0.974D+00
 Coeff:      0.853D-04 0.855D-03 0.459D-03-0.206D-01-0.101D+00 0.146D+00
 Coeff:      0.974D+00
 Gap=     0.394 Goal=   None    Shift=    0.000
 RMSDP=6.73D-06 MaxDP=2.79D-04 DE=-3.28D-05 OVMax= 9.16D-04

 Initial convergence to 1.0D-05 achieved.  Increase integral accuracy.
 Cycle   8  Pass 1  IDiag  1:
 E= -1627.09798694586     Delta-E=       -0.000009203500 Rises=F Damp=F
 DIIS: error= 6.95D-05 at cycle   1 NSaved=   1.
 NSaved= 1 IEnMin= 1 EnMin= -1627.09798694586     IErMin= 1 ErrMin= 6.95D-05
 ErrMax= 6.95D-05  0.00D+00 EMaxC= 1.00D-01 BMatC= 1.63D-06 BMatP= 1.63D-06
 IDIUse=1 WtCom= 1.00D+00 WtEn= 0.00D+00
 Coeff-Com:  0.100D+01
 Coeff:      0.100D+01
 Gap=     0.394 Goal=   None    Shift=    0.000
 RMSDP=6.73D-06 MaxDP=2.79D-04 DE=-9.20D-06 OVMax= 3.70D-04

 Cycle   9  Pass 1  IDiag  1:
 RMSU=  2.38D-05    CP:  1.00D+00
 E= -1627.09798882153     Delta-E=       -0.000001875670 Rises=F Damp=F
 DIIS: error= 1.33D-05 at cycle   2 NSaved=   2.
 NSaved= 2 IEnMin= 2 EnMin= -1627.09798882153     IErMin= 2 ErrMin= 1.33D-05
 ErrMax= 1.33D-05  0.00D+00 EMaxC= 1.00D-01 BMatC= 1.62D-07 BMatP= 1.63D-06
 IDIUse=1 WtCom= 1.00D+00 WtEn= 0.00D+00
 Coeff-Com:  0.416D-01 0.958D+00
 Coeff:      0.416D-01 0.958D+00
 Gap=     0.395 Goal=   None    Shift=    0.000
 RMSDP=1.90D-06 MaxDP=7.45D-05 DE=-1.88D-06 OVMax= 2.56D-04

 Cycle  10  Pass 1  IDiag  1:
 RMSU=  1.58D-06    CP:  1.00D+00  1.04D+00
 E= -1627.09798916422     Delta-E=       -0.000000342688 Rises=F Damp=F
 DIIS: error= 1.76D-05 at cycle   3 NSaved=   3.
 NSaved= 3 IEnMin= 3 EnMin= -1627.09798916422     IErMin= 2 ErrMin= 1.33D-05
 ErrMax= 1.76D-05  0.00D+00 EMaxC= 1.00D-01 BMatC= 7.46D-08 BMatP= 1.62D-07
 IDIUse=1 WtCom= 1.00D+00 WtEn= 0.00D+00
 Coeff-Com: -0.631D-01 0.323D+00 0.740D+00
 Coeff:     -0.631D-01 0.323D+00 0.740D+00
 Gap=     0.395 Goal=   None    Shift=    0.000
 RMSDP=8.20D-07 MaxDP=3.98D-05 DE=-3.43D-07 OVMax= 1.42D-04

 Cycle  11  Pass 1  IDiag  1:
 RMSU=  7.86D-07    CP:  1.00D+00  1.05D+00  1.03D+00
 E= -1627.09798931607     Delta-E=       -0.000000151853 Rises=F Damp=F
 DIIS: error= 5.54D-06 at cycle   4 NSaved=   4.
 NSaved= 4 IEnMin= 4 EnMin= -1627.09798931607     IErMin= 4 ErrMin= 5.54D-06
 ErrMax= 5.54D-06  0.00D+00 EMaxC= 1.00D-01 BMatC= 1.65D-08 BMatP= 7.46D-08
 IDIUse=1 WtCom= 1.00D+00 WtEn= 0.00D+00
 Coeff-Com:  0.125D-01-0.474D+00-0.324D+00 0.179D+01
 Coeff:      0.125D-01-0.474D+00-0.324D+00 0.179D+01
 Gap=     0.395 Goal=   None    Shift=    0.000
 RMSDP=1.10D-06 MaxDP=5.64D-05 DE=-1.52D-07 OVMax= 1.83D-04

 Cycle  12  Pass 1  IDiag  1:
 RMSU=  3.13D-07    CP:  1.00D+00  1.06D+00  1.53D+00  1.89D+00
 E= -1627.09798941142     Delta-E=       -0.000000095354 Rises=F Damp=F
 DIIS: error= 2.08D-06 at cycle   5 NSaved=   5.
 NSaved= 5 IEnMin= 5 EnMin= -1627.09798941142     IErMin= 5 ErrMin= 2.08D-06
 ErrMax= 2.08D-06  0.00D+00 EMaxC= 1.00D-01 BMatC= 1.52D-09 BMatP= 1.65D-08
 IDIUse=1 WtCom= 1.00D+00 WtEn= 0.00D+00
 Coeff-Com:  0.949D-02-0.171D+00-0.170D+00 0.540D+00 0.791D+00
 Coeff:      0.949D-02-0.171D+00-0.170D+00 0.540D+00 0.791D+00
 Gap=     0.395 Goal=   None    Shift=    0.000
 RMSDP=1.87D-07 MaxDP=8.48D-06 DE=-9.54D-08 OVMax= 3.11D-05

 Cycle  13  Pass 1  IDiag  1:
 RMSU=  9.30D-08    CP:  1.00D+00  1.06D+00  1.59D+00  2.05D+00  1.11D+00
 E= -1627.09798941566     Delta-E=       -0.000000004241 Rises=F Damp=F
 DIIS: error= 7.11D-07 at cycle   6 NSaved=   6.
 NSaved= 6 IEnMin= 6 EnMin= -1627.09798941566     IErMin= 6 ErrMin= 7.11D-07
 ErrMax= 7.11D-07  0.00D+00 EMaxC= 1.00D-01 BMatC= 2.26D-10 BMatP= 1.52D-09
 IDIUse=1 WtCom= 1.00D+00 WtEn= 0.00D+00
 Coeff-Com: -0.397D-02 0.116D+00 0.790D-01-0.401D+00-0.132D+00 0.134D+01
 Coeff:     -0.397D-02 0.116D+00 0.790D-01-0.401D+00-0.132D+00 0.134D+01
 Gap=     0.395 Goal=   None    Shift=    0.000
 RMSDP=1.03D-07 MaxDP=3.76D-06 DE=-4.24D-09 OVMax= 1.60D-05

 Cycle  14  Pass 1  IDiag  1:
 RMSU=  5.38D-08    CP:  1.00D+00  1.06D+00  1.60D+00  2.10D+00  1.31D+00
                    CP:  1.45D+00
 E= -1627.09798941663     Delta-E=       -0.000000000963 Rises=F Damp=F
 DIIS: error= 2.60D-07 at cycle   7 NSaved=   7.
 NSaved= 7 IEnMin= 7 EnMin= -1627.09798941663     IErMin= 7 ErrMin= 2.60D-07
 ErrMax= 2.60D-07  0.00D+00 EMaxC= 1.00D-01 BMatC= 3.68D-11 BMatP= 2.26D-10
 IDIUse=1 WtCom= 1.00D+00 WtEn= 0.00D+00
 Coeff-Com: -0.263D-02 0.578D-01 0.465D-01-0.188D+00-0.166D+00 0.318D+00
 Coeff-Com:  0.933D+00
 Coeff:     -0.263D-02 0.578D-01 0.465D-01-0.188D+00-0.166D+00 0.318D+00
 Coeff:      0.933D+00
 Gap=     0.395 Goal=   None    Shift=    0.000
 RMSDP=3.50D-08 MaxDP=1.89D-06 DE=-9.63D-10 OVMax= 5.04D-06

 Cycle  15  Pass 1  IDiag  1:
 RMSU=  1.60D-08    CP:  1.00D+00  1.06D+00  1.61D+00  2.11D+00  1.36D+00
                    CP:  1.64D+00  1.32D+00
 E= -1627.09798941674     Delta-E=       -0.000000000118 Rises=F Damp=F
 DIIS: error= 7.81D-08 at cycle   8 NSaved=   8.
 NSaved= 8 IEnMin= 8 EnMin= -1627.09798941674     IErMin= 8 ErrMin= 7.81D-08
 ErrMax= 7.81D-08  0.00D+00 EMaxC= 1.00D-01 BMatC= 3.49D-12 BMatP= 3.68D-11
 IDIUse=1 WtCom= 1.00D+00 WtEn= 0.00D+00
 Coeff-Com:  0.410D-03-0.126D-01-0.938D-02 0.457D-01 0.127D-01-0.165D+00
 Coeff-Com:  0.111D-01 0.112D+01
 Coeff:      0.410D-03-0.126D-01-0.938D-02 0.457D-01 0.127D-01-0.165D+00
 Coeff:      0.111D-01 0.112D+01
 Gap=     0.395 Goal=   None    Shift=    0.000
 RMSDP=1.27D-08 MaxDP=4.11D-07 DE=-1.18D-10 OVMax= 1.75D-06

 Cycle  16  Pass 1  IDiag  1:
 RMSU=  5.80D-09    CP:  1.00D+00  1.06D+00  1.61D+00  2.12D+00  1.36D+00
                    CP:  1.68D+00  1.49D+00  1.21D+00
 E= -1627.09798941676     Delta-E=       -0.000000000018 Rises=F Damp=F
 DIIS: error= 4.01D-08 at cycle   9 NSaved=   9.
 NSaved= 9 IEnMin= 9 EnMin= -1627.09798941676     IErMin= 9 ErrMin= 4.01D-08
 ErrMax= 4.01D-08  0.00D+00 EMaxC= 1.00D-01 BMatC= 5.37D-13 BMatP= 3.49D-12
 IDIUse=1 WtCom= 1.00D+00 WtEn= 0.00D+00
 Coeff-Com:  0.304D-03-0.701D-02-0.580D-02 0.234D-01 0.185D-01-0.485D-01
 Coeff-Com: -0.108D+00 0.134D+00 0.992D+00
 Coeff:      0.304D-03-0.701D-02-0.580D-02 0.234D-01 0.185D-01-0.485D-01
 Coeff:     -0.108D+00 0.134D+00 0.992D+00
 Gap=     0.395 Goal=   None    Shift=    0.000
 RMSDP=3.77D-09 MaxDP=1.36D-07 DE=-1.82D-11 OVMax= 6.35D-07

 SCF Done:  E(RHF) =  -1627.09798942     A.U. after   16 cycles
            NFock= 16  Conv=0.38D-08     -V/T= 2.0016
 KE= 1.624532011087D+03 PE=-9.285921645951D+03 EE= 3.300888282614D+03
 Leave Link  502 at Thu Jan 30 14:42:18 2025, MaxMem=   104857600 cpu:             130.0 elap:             130.6
 (Enter /home/pb777/GAUSSIAN/g16/l801.exe)
 Range of M.O.s used for correlation:     1   470
 NBasis=   470 NAE=   106 NBE=   106 NFC=     0 NFV=     0
 NROrb=    470 NOA=   106 NOB=   106 NVA=   364 NVB=   364
 Leave Link  801 at Thu Jan 30 14:42:18 2025, MaxMem=   104857600 cpu:               0.0 elap:               0.0
 (Enter /home/pb777/GAUSSIAN/g16/l1101.exe)
 Using compressed storage, NAtomX=    51.
 Will process     52 centers per pass.
 Leave Link 1101 at Thu Jan 30 14:42:18 2025, MaxMem=   104857600 cpu:               0.5 elap:               0.5
 (Enter /home/pb777/GAUSSIAN/g16/l1102.exe)
 Symmetrizing basis deriv contribution to polar:
 IMax=3 JMax=2 DiffMx= 0.00D+00
 Leave Link 1102 at Thu Jan 30 14:42:18 2025, MaxMem=   104857600 cpu:               0.1 elap:               0.0
 (Enter /home/pb777/GAUSSIAN/g16/l1110.exe)
 Forming Gx(P) for the SCF density, NAtomX=    51.
 Integral derivatives from FoFJK, PRISM(SPDF).
 Do as many integral derivatives as possible in FoFJK.
 G2DrvN: MDV=     104853792.
 G2DrvN: will do    52 centers at a time, making    1 passes.
 Calling FoFCou, ICntrl=  3107 FMM=F I1Cent=   0 AccDes= 0.00D+00.
 FoFJK:  IHMeth= 1 ICntrl=    3107 DoSepK=F KAlg= 0 I1Cent=           0 FoldK=F
 IRaf=         0 NMat=       1 IRICut=       1 DoRegI=T DoRafI=F ISym2E= 0 IDoP0=0 IntGTp=1.
 FoFCou: FMM=F IPFlag=           0 FMFlag=      100000 FMFlg1=           0
         NFxFlg=           0 DoJE=F BraDBF=F KetDBF=F FulRan=T
         wScrn=  0.000000 ICntrl=      3107 IOpCl=  0 I1Cent=           0 NGrid=           0
         NMat0=    1 NMatS0=      1 NMatT0=    0 NMatD0=    1 NMtDS0=    0 NMtDT0=    0
 Symmetry not used in FoFCou.
 End of G2Drv F.D. properties file   721 does not exist.
 End of G2Drv F.D. properties file   722 does not exist.
 End of G2Drv F.D. properties file   788 does not exist.
 Leave Link 1110 at Thu Jan 30 14:44:24 2025, MaxMem=   104857600 cpu:             125.1 elap:             125.8
 (Enter /home/pb777/GAUSSIAN/g16/l1002.exe)
 Minotr:  Closed shell wavefunction.
          IDoAtm=11111111111111111111111111111111111111111111111111
          IDoAtm=1
          Direct CPHF calculation.
          Differentiating once with respect to nuclear coordinates.
          Requested convergence is 1.0D-08 RMS, and 1.0D-07 maximum.
          Secondary convergence is 1.0D-12 RMS, and 1.0D-12 maximum.
          NewPWx=T KeepS1=F KeepF1=F KeepIn=T MapXYZ=F SortEE=F KeepMc=T.
 Two-electron integrals replicated using symmetry.
          MDV=     104857600 using IRadAn=       1.
          Solving linear equations simultaneously, MaxMat=     384.
 FoF2E skips out because all densities are zero.
 FoFJK:  IHMeth= 1 ICntrl=       0 DoSepK=F KAlg= 0 I1Cent=           0 FoldK=F
 IRaf= 630000000 NMat=     153 IRICut=     382 DoRegI=T DoRafI=T ISym2E= 2 IDoP0=0 IntGTp=1.
 FoFCou: FMM=F IPFlag=           0 FMFlag=      100000 FMFlg1=           0
         NFxFlg=           0 DoJE=F BraDBF=F KetDBF=F FulRan=T
         wScrn=  0.000000 ICntrl=         0 IOpCl=  0 I1Cent=           0 NGrid=           0
         NMat0=  153 NMatS0=    153 NMatT0=    0 NMatD0=  153 NMtDS0=    0 NMtDT0=    0
 Integrals replicated using symmetry in FoFCou.
 Raff kept on since  57.11% of shell-pairs survive, threshold=   0.20 IRatSp=57.
          There are   156 degrees of freedom in the 1st order CPHF.  IDoFFX=6 NUNeed=     0.
    150 vectors produced by pass  0 Test12= 3.86D-14 1.00D-09 XBig12= 1.11D-01 8.65D-02.
 AX will form   150 AO Fock derivatives at one time.
    150 vectors produced by pass  1 Test12= 3.86D-14 1.00D-09 XBig12= 1.07D-02 2.65D-02.
    150 vectors produced by pass  2 Test12= 3.86D-14 1.00D-09 XBig12= 3.10D-04 3.28D-03.
    150 vectors produced by pass  3 Test12= 3.86D-14 1.00D-09 XBig12= 5.49D-06 2.91D-04.
    150 vectors produced by pass  4 Test12= 3.86D-14 1.00D-09 XBig12= 6.58D-08 1.76D-05.
    150 vectors produced by pass  5 Test12= 3.86D-14 1.00D-09 XBig12= 4.44D-10 1.95D-06.
    138 vectors produced by pass  6 Test12= 3.86D-14 1.00D-09 XBig12= 3.17D-12 1.13D-07.
     48 vectors produced by pass  7 Test12= 3.86D-14 1.00D-09 XBig12= 1.68D-14 7.65D-09.
 InvSVY:  IOpt=1 It=  1 EMax= 4.16D-16
 Solved reduced A of dimension  1086 with   156 vectors.
 End of Minotr F.D. properties file   721 does not exist.
 End of Minotr F.D. properties file   722 does not exist.
 End of Minotr F.D. properties file   788 does not exist.
 Leave Link 1002 at Thu Jan 30 15:19:01 2025, MaxMem=   104857600 cpu:            2066.1 elap:            2076.9
 (Enter /home/pb777/GAUSSIAN/g16/l601.exe)
 Copying SCF densities to generalized density rwf, IOpCl= 0 IROHF=0.

 **********************************************************************

            Population analysis using the SCF density.

 **********************************************************************

 Orbital symmetries:
       Occupied  (A) (A) (A) (A) (A) (A) (A) (A) (A) (A) (A) (A)
                 (A) (A) (A) (A) (A) (A) (A) (A) (A) (A) (A) (A)
                 (A) (A) (A) (A) (A) (A) (A) (A) (A) (A) (A) (A)
                 (A) (A) (A) (A) (A) (A) (A) (A) (A) (A) (A) (A)
                 (A) (A) (A) (A) (A) (A) (A) (A) (A) (A) (A) (A)
                 (A) (A) (A) (A) (A) (A) (A) (A) (A) (A) (A) (A)
                 (A) (A) (A) (A) (A) (A) (A) (A) (A) (A) (A) (A)
                 (A) (A) (A) (A) (A) (A) (A) (A) (A) (A) (A) (A)
                 (A) (A) (A) (A) (A) (A) (A) (A) (A) (A)
       Virtual   (A) (A) (A) (A) (A) (A) (A) (A) (A) (A) (A) (A)
                 (A) (A) (A) (A) (A) (A) (A) (A) (A) (A) (A) (A)
                 (A) (A) (A) (A) (A) (A) (A) (A) (A) (A) (A) (A)
                 (A) (A) (A) (A) (A) (A) (A) (A) (A) (A) (A) (A)
                 (A) (A) (A) (A) (A) (A) (A) (A) (A) (A) (A) (A)
                 (A) (A) (A) (A) (A) (A) (A) (A) (A) (A) (A) (A)
                 (A) (A) (A) (A) (A) (A) (A) (A) (A) (A) (A) (A)
                 (A) (A) (A) (A) (A) (A) (A) (A) (A) (A) (A) (A)
                 (A) (A) (A) (A) (A) (A) (A) (A) (A) (A) (A) (A)
                 (A) (A) (A) (A) (A) (A) (A) (A) (A) (A) (A) (A)
                 (A) (A) (A) (A) (A) (A) (A) (A) (A) (A) (A) (A)
                 (A) (A) (A) (A) (A) (A) (A) (A) (A) (A) (A) (A)
                 (A) (A) (A) (A) (A) (A) (A) (A) (A) (A) (A) (A)
                 (A) (A) (A) (A) (A) (A) (A) (A) (A) (A) (A) (A)
                 (A) (A) (A) (A) (A) (A) (A) (A) (A) (A) (A) (A)
                 (A) (A) (A) (A) (A) (A) (A) (A) (A) (A) (A) (A)
                 (A) (A) (A) (A) (A) (A) (A) (A) (A) (A) (A) (A)
                 (A) (A) (A) (A) (A) (A) (A) (A) (A) (A) (A) (A)
                 (A) (A) (A) (A) (A) (A) (A) (A) (A) (A) (A) (A)
                 (A) (A) (A) (A) (A) (A) (A) (A) (A) (A) (A) (A)
                 (A) (A) (A) (A) (A) (A) (A) (A) (A) (A) (A) (A)
                 (A) (A) (A) (A) (A) (A) (A) (A) (A) (A) (A) (A)
                 (A) (A) (A) (A) (A) (A) (A) (A) (A) (A) (A) (A)
                 (A) (A) (A) (A) (A) (A) (A) (A) (A) (A) (A) (A)
                 (A) (A) (A) (A) (A) (A) (A) (A) (A) (A) (A) (A)
                 (A) (A) (A) (A) (A) (A) (A) (A) (A) (A) (A) (A)
                 (A) (A) (A) (A) (A) (A) (A) (A) (A) (A) (A) (A)
                 (A) (A) (A) (A) (A) (A) (A) (A) (A) (A) (A) (A)
                 (A) (A) (A) (A) (A) (A) (A) (A) (A) (A) (A) (A)
                 (A) (A) (A) (A) (A) (A) (A) (A) (A) (A) (A) (A)
                 (A) (A) (A) (A)
 The electronic state is 1-A.
 Alpha  occ. eigenvalues --  -92.18893 -20.61919 -20.54955 -20.54638 -15.63825
 Alpha  occ. eigenvalues --  -15.61538 -15.56561 -15.55378 -15.54774 -11.37515
 Alpha  occ. eigenvalues --  -11.36768 -11.31466 -11.31425 -11.30234 -11.28251
 Alpha  occ. eigenvalues --  -11.28146 -11.28096 -11.27762 -11.27377 -11.26050
 Alpha  occ. eigenvalues --  -11.25908 -11.25337 -11.23032 -11.22496 -11.22338
 Alpha  occ. eigenvalues --  -11.22121 -11.21924 -11.21799  -9.16365  -6.84929
 Alpha  occ. eigenvalues --   -6.84874  -6.84854  -1.44629  -1.43752  -1.40320
 Alpha  occ. eigenvalues --   -1.35155  -1.32510  -1.24923  -1.19657  -1.18029
 Alpha  occ. eigenvalues --   -1.15990  -1.11815  -1.07370  -1.04758  -1.04550
 Alpha  occ. eigenvalues --   -1.03319  -1.01511  -1.00690  -0.93874  -0.91129
 Alpha  occ. eigenvalues --   -0.88850  -0.87364  -0.85465  -0.84160  -0.83635
 Alpha  occ. eigenvalues --   -0.82159  -0.80886  -0.79241  -0.77061  -0.75166
 Alpha  occ. eigenvalues --   -0.73772  -0.70781  -0.70420  -0.68363  -0.67549
 Alpha  occ. eigenvalues --   -0.66634  -0.65547  -0.65231  -0.64653  -0.64487
 Alpha  occ. eigenvalues --   -0.63823  -0.63602  -0.62800  -0.61886  -0.61027
 Alpha  occ. eigenvalues --   -0.60797  -0.60145  -0.59932  -0.59809  -0.59028
 Alpha  occ. eigenvalues --   -0.57673  -0.55915  -0.54984  -0.53309  -0.52856
 Alpha  occ. eigenvalues --   -0.52776  -0.51087  -0.49662  -0.49163  -0.48576
 Alpha  occ. eigenvalues --   -0.48414  -0.48282  -0.47512  -0.46045  -0.45163
 Alpha  occ. eigenvalues --   -0.44647  -0.43839  -0.43181  -0.43037  -0.42785
 Alpha  occ. eigenvalues --   -0.42282  -0.38631  -0.38158  -0.36376  -0.35998
 Alpha  occ. eigenvalues --   -0.30500
 Alpha virt. eigenvalues --    0.08955   0.11294   0.13191   0.17497   0.19948
 Alpha virt. eigenvalues --    0.20407   0.21966   0.22218   0.22668   0.22896
 Alpha virt. eigenvalues --    0.23800   0.25139   0.25834   0.26216   0.26428
 Alpha virt. eigenvalues --    0.26911   0.27539   0.27942   0.28119   0.28925
 Alpha virt. eigenvalues --    0.30218   0.30354   0.31008   0.31329   0.31912
 Alpha virt. eigenvalues --    0.32677   0.32897   0.33220   0.33320   0.33694
 Alpha virt. eigenvalues --    0.34477   0.34727   0.36278   0.36633   0.37825
 Alpha virt. eigenvalues --    0.38537   0.39762   0.40380   0.40619   0.41411
 Alpha virt. eigenvalues --    0.42516   0.42687   0.44090   0.44864   0.45133
 Alpha virt. eigenvalues --    0.45486   0.46567   0.48466   0.49198   0.49603
 Alpha virt. eigenvalues --    0.50489   0.51825   0.52886   0.53790   0.54894
 Alpha virt. eigenvalues --    0.56718   0.57289   0.57848   0.59085   0.61874
 Alpha virt. eigenvalues --    0.63631   0.66786   0.67097   0.68403   0.69056
 Alpha virt. eigenvalues --    0.71303   0.71729   0.71840   0.72331   0.73947
 Alpha virt. eigenvalues --    0.74299   0.74461   0.75106   0.75523   0.75775
 Alpha virt. eigenvalues --    0.76078   0.77423   0.77658   0.79216   0.79547
 Alpha virt. eigenvalues --    0.79992   0.80407   0.80998   0.81263   0.81894
 Alpha virt. eigenvalues --    0.82191   0.83552   0.84146   0.84423   0.86271
 Alpha virt. eigenvalues --    0.87155   0.88959   0.89164   0.89325   0.90132
 Alpha virt. eigenvalues --    0.90653   0.91590   0.91934   0.92718   0.93917
 Alpha virt. eigenvalues --    0.94305   0.95420   0.96486   0.98239   0.98649
 Alpha virt. eigenvalues --    0.99118   0.99140   1.00511   1.01179   1.01888
 Alpha virt. eigenvalues --    1.02593   1.02777   1.04009   1.04214   1.04565
 Alpha virt. eigenvalues --    1.04826   1.05043   1.06567   1.06693   1.07296
 Alpha virt. eigenvalues --    1.08031   1.08515   1.08960   1.09756   1.10711
 Alpha virt. eigenvalues --    1.11871   1.12487   1.13253   1.13487   1.13781
 Alpha virt. eigenvalues --    1.14027   1.14612   1.14758   1.15084   1.15211
 Alpha virt. eigenvalues --    1.15421   1.16139   1.16712   1.16797   1.17509
 Alpha virt. eigenvalues --    1.18156   1.18467   1.19233   1.19630   1.19923
 Alpha virt. eigenvalues --    1.20845   1.21539   1.22420   1.22591   1.23257
 Alpha virt. eigenvalues --    1.23571   1.24740   1.25371   1.26549   1.26786
 Alpha virt. eigenvalues --    1.26993   1.28136   1.30184   1.30682   1.32126
 Alpha virt. eigenvalues --    1.33952   1.34105   1.34978   1.35766   1.36489
 Alpha virt. eigenvalues --    1.38524   1.39731   1.40634   1.41118   1.42295
 Alpha virt. eigenvalues --    1.44002   1.44419   1.45476   1.46131   1.47545
 Alpha virt. eigenvalues --    1.48144   1.49930   1.50816   1.52992   1.53565
 Alpha virt. eigenvalues --    1.55086   1.56132   1.58413   1.58910   1.59506
 Alpha virt. eigenvalues --    1.60011   1.61717   1.63988   1.64345   1.66542
 Alpha virt. eigenvalues --    1.66833   1.67756   1.69157   1.69918   1.70820
 Alpha virt. eigenvalues --    1.71387   1.72407   1.73652   1.74484   1.76001
 Alpha virt. eigenvalues --    1.76407   1.76882   1.79807   1.81595   1.81952
 Alpha virt. eigenvalues --    1.82421   1.83880   1.87482   1.88157   1.89050
 Alpha virt. eigenvalues --    1.91489   1.92299   1.95111   1.97055   1.98003
 Alpha virt. eigenvalues --    1.98606   1.99793   2.00789   2.01859   2.03387
 Alpha virt. eigenvalues --    2.03813   2.05546   2.05950   2.07130   2.07885
 Alpha virt. eigenvalues --    2.08976   2.09995   2.11788   2.12578   2.12877
 Alpha virt. eigenvalues --    2.13221   2.14463   2.14703   2.15365   2.15650
 Alpha virt. eigenvalues --    2.17589   2.20076   2.20996   2.21816   2.23268
 Alpha virt. eigenvalues --    2.24161   2.24473   2.26484   2.27844   2.28268
 Alpha virt. eigenvalues --    2.28977   2.29419   2.29701   2.30648   2.31196
 Alpha virt. eigenvalues --    2.33313   2.33459   2.34599   2.35985   2.36761
 Alpha virt. eigenvalues --    2.39206   2.39726   2.40951   2.41739   2.42616
 Alpha virt. eigenvalues --    2.42846   2.43841   2.44335   2.45343   2.45531
 Alpha virt. eigenvalues --    2.46677   2.47272   2.49916   2.50889   2.53166
 Alpha virt. eigenvalues --    2.53230   2.54152   2.54884   2.55469   2.56646
 Alpha virt. eigenvalues --    2.58834   2.59174   2.60531   2.60934   2.61388
 Alpha virt. eigenvalues --    2.63513   2.64483   2.65598   2.66483   2.67576
 Alpha virt. eigenvalues --    2.68391   2.69000   2.70991   2.72859   2.73590
 Alpha virt. eigenvalues --    2.74172   2.75321   2.76193   2.80145   2.80589
 Alpha virt. eigenvalues --    2.81631   2.84732   2.87169   2.88451   2.90246
 Alpha virt. eigenvalues --    2.91144   2.92713   2.94194   2.94510   2.97129
 Alpha virt. eigenvalues --    2.97978   2.98990   2.99881   3.00631   3.02080
 Alpha virt. eigenvalues --    3.04085   3.04857   3.05654   3.07671   3.08953
 Alpha virt. eigenvalues --    3.09412   3.10351   3.12382   3.13736   3.14352
 Alpha virt. eigenvalues --    3.15389   3.16963   3.19041   3.20008   3.20805
 Alpha virt. eigenvalues --    3.25187   3.29813   3.31515   3.35930   3.41956
 Alpha virt. eigenvalues --    3.44959   3.57043   3.61439   3.74532   3.81767
 Alpha virt. eigenvalues --    3.90218   4.26723   4.35862   4.39116   4.41688
 Alpha virt. eigenvalues --    4.46964   4.49354   4.51343   4.52770   4.54898
 Alpha virt. eigenvalues --    4.57771   4.58867   4.61992   4.62359   4.63484
 Alpha virt. eigenvalues --    4.68309   4.69461   4.70840   4.74178   4.78556
 Alpha virt. eigenvalues --    4.82703   4.86092   4.92057   4.95383   4.96627
 Alpha virt. eigenvalues --    5.06558   5.09105   5.14516   5.23239
          Condensed to atoms (all electrons):
 Mulliken charges:
               1
     1  C    0.886435
     2  C    0.259553
     3  C   -0.023433
     4  C   -0.160403
     5  C   -0.324910
     6  C   -0.315189
     7  C   -0.305985
     8  C   -0.317507
     9  C   -0.323062
    10  C   -0.165919
    11  C   -0.329458
    12  C   -0.173426
    13  C   -0.203063
    14  N   -0.782898
    15  C    0.785065
    16  O   -0.633023
    17  C    0.041652
    18  N   -0.554217
    19  N   -0.772095
    20  C    0.643122
    21  N   -0.728926
    22  N   -0.878793
    23  C    0.332986
    24  C   -0.233870
    25  H    0.226861
    26  H    0.196328
    27  H    0.188082
    28  H    0.193191
    29  H    0.142115
    30  H    0.174354
    31  H    0.160815
    32  H    0.152598
    33  H    0.142939
    34  H    0.167494
    35  H    0.164958
    36  H    0.152442
    37  H    0.177070
    38  H    0.139314
    39  H    0.270721
    40  H    0.241644
    41  H    0.237521
    42  H    0.417659
    43  H    0.426482
    44  H    0.222929
    45  S    1.497428
    46  O   -0.690151
    47  O   -0.696163
    48  H    0.240284
    49  H    0.214169
    50  C   -0.708088
    51  H    0.224365
 Sum of Mulliken charges =  -0.00000
 Mulliken charges with hydrogens summed into heavy atoms:
               1
     1  C    0.886435
     2  C    0.486415
     3  C    0.360977
     4  C    0.032789
     5  C   -0.008441
     6  C   -0.001776
     7  C    0.004447
     8  C   -0.000108
     9  C   -0.006677
    10  C    0.104803
    11  C   -0.329458
    12  C    0.068219
    13  C    0.034458
    14  N   -0.782898
    15  C    0.785065
    16  O   -0.633023
    17  C    0.041652
    18  N   -0.554217
    19  N   -0.354436
    20  C    0.643122
    21  N   -0.728926
    22  N   -0.452311
    23  C    0.332986
    24  C   -0.010941
    45  S    1.497428
    46  O   -0.690151
    47  O   -0.696163
    50  C   -0.029269
 APT charges:
               1
     1  C   -0.187110
     2  C   -0.456549
     3  C    0.054378
     4  C   -0.763548
     5  C   -0.316565
     6  C   -1.665543
     7  C   -1.154604
     8  C   -1.658067
     9  C   -0.302634
    10  C   -0.615729
    11  C   -0.189329
    12  C   -0.532905
    13  C   -0.612430
    14  N   -0.967151
    15  C    0.230712
    16  O   -0.264121
    17  C   -0.363007
    18  N   -0.909895
    19  N   -0.931586
    20  C    0.779020
    21  N   -0.268140
    22  N   -0.941956
    23  C   -0.090329
    24  C   -0.522715
    25  H    1.494733
    26  H    0.252848
    27  H    0.128685
    28  H    0.714048
    29  H    0.075010
    30  H    0.501038
    31  H    0.611987
    32  H    0.691809
    33  H    0.095289
    34  H    1.078032
    35  H    0.636315
    36  H    0.709425
    37  H    0.461251
    38  H    0.094390
    39  H    1.069264
    40  H    0.424227
    41  H    0.207477
    42  H    1.336058
    43  H    1.092512
    44  H    0.799646
    45  S    0.265798
    46  O   -0.307845
    47  O    0.173300
    48  H    1.157628
    49  H   -0.020484
    50  C   -1.243582
    51  H    0.150942
 Sum of APT charges =  -0.00000
 APT charges with hydrogens summed into heavy atoms:
               1
     1  C   -0.187110
     2  C    1.038184
     3  C    0.435911
     4  C   -0.049500
     5  C    0.259484
     6  C   -0.361747
     7  C    0.018718
     8  C   -0.312327
     9  C    0.253007
    10  C    0.453536
    11  C   -0.189329
    12  C   -0.108678
    13  C   -0.404953
    14  N   -0.967151
    15  C    0.230712
    16  O   -0.264121
    17  C   -0.363007
    18  N   -0.909895
    19  N    0.404471
    20  C    0.779020
    21  N   -0.268140
    22  N    0.150556
    23  C   -0.090329
    24  C    0.276931
    45  S    0.265798
    46  O   -0.307845
    47  O    0.173300
    50  C    0.044504
 Electronic spatial extent (au):  <R**2>=          15211.9283
 Charge=              0.0000 electrons
 Dipole moment (field-independent basis, Debye):
    X=              4.8488    Y=             -1.6190    Z=             -0.8241  Tot=              5.1780
 Quadrupole moment (field-independent basis, Debye-Ang):
   XX=           -210.2678   YY=           -143.0550   ZZ=           -177.7966
   XY=            -36.6083   XZ=             17.8157   YZ=             -0.5792
 Traceless Quadrupole moment (field-independent basis, Debye-Ang):
   XX=            -33.2280   YY=             33.9848   ZZ=             -0.7568
   XY=            -36.6083   XZ=             17.8157   YZ=             -0.5792
 Octapole moment (field-independent basis, Debye-Ang**2):
  XXX=            357.8375  YYY=           -115.8610  ZZZ=             -9.8138  XYY=             74.9686
  XXY=            -49.5443  XXZ=            -22.4911  XZZ=             22.7392  YZZ=              1.9059
  YYZ=             -0.9535  XYZ=            -19.8982
 Hexadecapole moment (field-independent basis, Debye-Ang**3):
 XXXX=         -13390.8419 YYYY=          -7107.2433 ZZZZ=           -777.3394 XXXY=          -1631.3966
 XXXZ=            485.6469 YYYX=           -313.3883 YYYZ=              7.5920 ZZZX=             39.2227
 ZZZY=              3.0725 XXYY=          -2670.2463 XXZZ=          -2304.7115 YYZZ=          -1404.2102
 XXYZ=           -141.4201 YYXZ=             97.1901 ZZXY=            -23.4546
 N-N= 2.733403362833D+03 E-N=-9.285921653935D+03  KE= 1.624532011087D+03
  Exact polarizability:   0.000   0.000   0.000   0.000   0.000   0.000
 Approx polarizability: 255.192  -8.447 221.833  12.071  11.288 168.055
 No NMR shielding tensors so no spin-rotation constants.
 Leave Link  601 at Thu Jan 30 15:19:01 2025, MaxMem=   104857600 cpu:               0.2 elap:               0.2
 (Enter /home/pb777/GAUSSIAN/g16/l701.exe)
 ... and contract with generalized density number  0.
 Compute integral second derivatives.
 Leave Link  701 at Thu Jan 30 15:19:02 2025, MaxMem=   104857600 cpu:               0.5 elap:               0.5
 (Enter /home/pb777/GAUSSIAN/g16/l702.exe)
 L702 exits ... SP integral derivatives will be done elsewhere.
 Leave Link  702 at Thu Jan 30 15:19:02 2025, MaxMem=   104857600 cpu:               0.0 elap:               0.0
 (Enter /home/pb777/GAUSSIAN/g16/l703.exe)
 Integral derivatives from FoFJK, PRISM(SPDF).
 Compute integral second derivatives, UseDBF=F ICtDFT=           0.
 Calling FoFJK, ICntrl=    100147 FMM=F ISym2X=0 I1Cent= 0 IOpClX= 0 NMat=1 NMatS=1 NMatT=0.
 FoFJK:  IHMeth= 1 ICntrl=  100147 DoSepK=F KAlg= 0 I1Cent=           0 FoldK=F
 IRaf=         0 NMat=       1 IRICut=       1 DoRegI=T DoRafI=F ISym2E= 0 IDoP0=0 IntGTp=1.
 FoFCou: FMM=F IPFlag=           0 FMFlag=      100000 FMFlg1=         800
         NFxFlg=           0 DoJE=F BraDBF=F KetDBF=F FulRan=T
         wScrn=  0.000000 ICntrl=    100147 IOpCl=  0 I1Cent=           0 NGrid=           0
         NMat0=    1 NMatS0=      1 NMatT0=    0 NMatD0=    1 NMtDS0=    0 NMtDT0=    0
 Symmetry not used in FoFCou.
 Leave Link  703 at Thu Jan 30 15:21:50 2025, MaxMem=   104857600 cpu:             167.7 elap:             168.4
 (Enter /home/pb777/GAUSSIAN/g16/l716.exe)
 Dipole        = 1.90766325D+00-6.36980709D-01-3.24234517D-01
 Polarizability= 0.00000000D+00 0.00000000D+00 0.00000000D+00
                 0.00000000D+00 0.00000000D+00 0.00000000D+00
 ***** Axes restored to original set *****
 -------------------------------------------------------------------
 Center     Atomic                   Forces (Hartrees/Bohr)
 Number     Number              X              Y              Z
[...]
 1408 Fit       0.020854
 1409 Fit       0.015464
 1410 Fit      -0.035877
 1411 Fit      -0.045802
 1412 Fit      -0.037317
 1413 Fit      -0.027582
 1414 Fit      -0.036170
 1415 Fit      -0.024274
 1416 Fit      -0.044915
 1417 Fit      -0.047598
 1418 Fit      -0.025752
 1419 Fit      -0.034938
 1420 Fit      -0.026176
 1421 Fit      -0.040379
 1422 Fit      -0.045285
 1423 Fit      -0.040825
 1424 Fit      -0.033806
 1425 Fit      -0.032194
 1426 Fit      -0.038005
 1427 Fit      -0.043320
 1428 Fit      -0.048384
 1429 Fit      -0.023958
 1430 Fit      -0.032859
 1431 Fit      -0.038471
 1432 Fit      -0.042943
 1433 Fit      -0.046691
 1434 Fit      -0.018024
 1435 Fit      -0.027510
 1436 Fit      -0.033072
 1437 Fit      -0.037113
 1438 Fit      -0.041071
 1439 Fit      -0.046201
 1440 Fit      -0.015001
 1441 Fit      -0.021132
 1442 Fit      -0.024196
 1443 Fit      -0.047102
 1444 Fit      -0.043495
 1445 Fit      -0.036585
 1446 Fit      -0.048229
 1447 Fit      -0.044371
 1448 Fit      -0.041640
 1449 Fit      -0.036116
 1450 Fit      -0.040637
 1451 Fit      -0.044650
 1452 Fit      -0.040120
 1453 Fit      -0.037086
 1454 Fit      -0.029683
 1455 Fit      -0.033605
 1456 Fit      -0.039853
 1457 Fit      -0.034392
 1458 Fit      -0.029903
 1459 Fit      -0.019565
 1460 Fit      -0.032361
 1461 Fit      -0.025065
 1462 Fit      -0.015685
 1463 Fit      -0.016726
 1464 Fit      -0.000711
 1465 Fit      -0.003029
 1466 Fit      -0.008604
 1467 Fit       0.008467
 1468 Fit       0.006809
 1469 Fit       0.003969
 1470 Fit      -0.002053
 1471 Fit      -0.002358
 1472 Fit       0.011289
 1473 Fit       0.009085
 1474 Fit       0.004854
 1475 Fit       0.007764
 1476 Fit       0.010787
 1477 Fit       0.013057
 1478 Fit       0.007627
 1479 Fit       0.001175
 1480 Fit       0.015810
 1481 Fit       0.015870
 1482 Fit       0.013700
 1483 Fit       0.010929
 1484 Fit       0.014324
 1485 Fit       0.015993
 1486 Fit       0.016299
 1487 Fit       0.015075
 1488 Fit       0.016922
 1489 Fit       0.000774
 1490 Fit       0.010271
 1491 Fit       0.011494
 1492 Fit       0.014581
 1493 Fit       0.016925
 1494 Fit       0.016383
 1495 Fit       0.014681
 1496 Fit       0.013691
 1497 Fit       0.015034
 1498 Fit       0.013385
 1499 Fit       0.001320
 1500 Fit       0.004823
 1501 Fit       0.014364
 1502 Fit       0.016280
 1503 Fit       0.015273
 1504 Fit       0.016189
 1505 Fit       0.011149
 1506 Fit       0.014464
 1507 Fit       0.016583
 1508 Fit       0.016495
 1509 Fit       0.015505
 1510 Fit       0.013069
 1511 Fit       0.015246
 1512 Fit      -0.003944
 1513 Fit      -0.001309
 1514 Fit       0.001769
 1515 Fit       0.001577
 1516 Fit      -0.003125
 1517 Fit      -0.003990
 1518 Fit       0.002235
 1519 Fit       0.007072
 1520 Fit       0.009252
 1521 Fit       0.016696
 1522 Fit      -0.003776
 1523 Fit       0.011865
 1524 Fit       0.001280
 1525 Fit       0.024211
 1526 Fit       0.014241
 1527 Fit       0.005245
 1528 Fit      -0.000199
 1529 Fit       0.002114
 1530 Fit       0.001289
 1531 Fit       0.007670
 1532 Fit       0.001329
 1533 Fit       0.000927
 1534 Fit       0.001094
 1535 Fit       0.001793
 1536 Fit       0.003787
 1537 Fit      -0.000508
 1538 Fit       0.000028
 1539 Fit      -0.000960
 1540 Fit      -0.000911
 1541 Fit      -0.000183
 1542 Fit      -0.000025
 1543 Fit      -0.001626
 1544 Fit      -0.000252
 1545 Fit      -0.004509
 1546 Fit      -0.006522
 1547 Fit      -0.002059
 1548 Fit      -0.004718
 1549 Fit      -0.006550
 1550 Fit      -0.016867
 1551 Fit      -0.016141
 1552 Fit      -0.014970
 1553 Fit      -0.008078
 1554 Fit      -0.001891
 1555 Fit       0.004833
 1556 Fit       0.012391
 1557 Fit       0.007428
 1558 Fit       0.013156
 1559 Fit       0.013785
 1560 Fit       0.010646
 1561 Fit      -0.017706
 1562 Fit      -0.006817
 1563 Fit      -0.016878
 1564 Fit      -0.011241
 1565 Fit       0.004244
 1566 Fit      -0.017738
 1567 Fit      -0.016724
 1568 Fit       0.009895
 1569 Fit       0.009367
 1570 Fit       0.003550
 1571 Fit       0.002166
 1572 Fit      -0.000707
 1573 Fit      -0.009376
 1574 Fit      -0.006665
 1575 Fit      -0.011917
 1576 Fit      -0.007731
 1577 Fit       0.000361
 1578 Fit       0.003274
 1579 Fit      -0.000169
 1580 Fit       0.002066
 1581 Fit       0.000613
 1582 Fit      -0.004459
 1583 Fit      -0.002582
 1584 Fit       0.001325
 1585 Fit       0.000366
 1586 Fit      -0.006960
 1587 Fit      -0.000239
 1588 Fit      -0.001749
 1589 Fit      -0.008806
 1590 Fit      -0.001769
 1591 Fit       0.001518
 1592 Fit      -0.026977
 1593 Fit      -0.011888
 1594 Fit      -0.010241
 1595 Fit      -0.002884
 1596 Fit      -0.003807
 1597 Fit      -0.008661
 1598 Fit      -0.003801
 1599 Fit      -0.001562
 1600 Fit      -0.019171
 1601 Fit      -0.014954
 1602 Fit      -0.013739
 1603 Fit      -0.016335
 1604 Fit      -0.021923
 1605 Fit      -0.007843
 1606 Fit      -0.005992
 1607 Fit      -0.006000
 1608 Fit      -0.010981
 1609 Fit      -0.019203
 1610 Fit      -0.025049
 1611 Fit      -0.005789
 1612 Fit      -0.016890
 1613 Fit      -0.024139
 1614 Fit      -0.027369
 1615 Fit      -0.012682
 1616 Fit      -0.021076
 1617 Fit      -0.024856
 1618 Fit      -0.007690
 1619 Fit      -0.016692
 1620 Fit      -0.020356
 1621 Fit      -0.020898
 1622 Fit      -0.011715
 1623 Fit      -0.014690
 1624 Fit      -0.013058
 1625 Fit      -0.006520
 1626 Fit      -0.008233
 1627 Fit       0.005810
 1628 Fit       0.011023
 1629 Fit       0.006978
 1630 Fit       0.013987
 1631 Fit       0.020012
 1632 Fit       0.019208
 1633 Fit       0.027508
 1634 Fit       0.017631
 1635 Fit       0.009067
 1636 Fit       0.004536
 1637 Fit       0.023461
 1638 Fit       0.014063
 1639 Fit       0.007529
 1640 Fit       0.014455
 1641 Fit      -0.000154
 1642 Fit       0.000815
 1643 Fit       0.003359
 1644 Fit       0.001636
 1645 Fit       0.005333
 1646 Fit      -0.001523
 1647 Fit      -0.001604
 1648 Fit      -0.000494
 1649 Fit       0.003050
 1650 Fit       0.000098
 1651 Fit       0.006116
 1652 Fit       0.002740
 1653 Fit       0.007416
 1654 Fit       0.004411
 1655 Fit       0.010179
 1656 Fit       0.009125
 1657 Fit       0.004579
 1658 Fit       0.011494
 1659 Fit       0.001393
 1660 Fit       0.001001
 1661 Fit       0.002903
 1662 Fit       0.002913
 1663 Fit       0.000806
 1664 Fit       0.000672
 1665 Fit       0.001528
 1666 Fit      -0.005705
 1667 Fit      -0.002594
 1668 Fit       0.000229
 1669 Fit       0.002093
 1670 Fit       0.010864
 1671 Fit       0.000449
 1672 Fit       0.002109
 1673 Fit       0.001603
 1674 Fit       0.010698
 1675 Fit       0.005533
 1676 Fit       0.005003
 1677 Fit       0.011779
 1678 Fit      -0.007126
 1679 Fit      -0.014481
 1680 Fit      -0.008064
 1681 Fit       0.001239
 1682 Fit       0.000505
 1683 Fit       0.004207
 1684 Fit      -0.015378
 1685 Fit      -0.008943
 1686 Fit      -0.003402
 1687 Fit      -0.006456
 1688 Fit      -0.000170
 1689 Fit       0.005774
 1690 Fit      -0.000410
 1691 Fit       0.005397
 1692 Fit       0.017283
 1693 Fit       0.007977
 1694 Fit       0.003260
 1695 Fit       0.003537
 1696 Fit       0.012674
 1697 Fit       0.012986
 1698 Fit       0.007224
 1699 Fit       0.006310
 1700 Fit       0.009706
 1701 Fit       0.008682
 1702 Fit       0.017388
 1703 Fit       0.014663
 1704 Fit       0.008651
 1705 Fit       0.024913
 1706 Fit       0.022456
 1707 Fit       0.019402
 1708 Fit       0.014890
 1709 Fit       0.007605
 1710 Fit       0.031999
 1711 Fit       0.026497
 1712 Fit       0.022297
 1713 Fit       0.017563
 1714 Fit       0.010965
 1715 Fit       0.030823
 1716 Fit       0.023902
 1717 Fit       0.017736
 1718 Fit       0.014882
 1719 Fit       0.001872
 1720 Fit       0.006168
 1721 Fit       0.009303
 1722 Fit       0.010991
 1723 Fit       0.011015
 1724 Fit       0.004989
 1725 Fit       0.007625
 1726 Fit       0.006437
 1727 Fit       0.002886
 1728 Fit       0.003359
 1729 Fit       0.001985
 1730 Fit       0.000851
 1731 Fit       0.006298
 1732 Fit      -0.000135
 1733 Fit      -0.001936
 1734 Fit       0.004037
 1735 Fit      -0.016342
 1736 Fit      -0.004890
 1737 Fit       0.000926
 1738 Fit       0.004134
 1739 Fit      -0.012004
 1740 Fit      -0.002211
 1741 Fit       0.002696
 1742 Fit       0.005382
 1743 Fit       0.001454
 1744 Fit       0.005992
 1745 Fit       0.002530
 1746 Fit       0.004914
 1747 Fit       0.001885
 1748 Fit       0.001500
 1749 Fit       0.001724
 1750 Fit       0.005100
 1751 Fit       0.000302
 1752 Fit       0.000098
 1753 Fit       0.003880
 1754 Fit       0.000521
 1755 Fit       0.001026
 1756 Fit       0.005888
 1757 Fit       0.004315
 1758 Fit       0.004411
 1759 Fit       0.004240
 1760 Fit       0.003913
 1761 Fit       0.005432
 1762 Fit       0.013392
 1763 Fit       0.006633
 1764 Fit       0.006328
 1765 Fit       0.006427
 1766 Fit       0.006813
 1767 Fit       0.008628
 1768 Fit       0.012433
 1769 Fit       0.008804
 1770 Fit       0.008338
 1771 Fit       0.009380
 1772 Fit       0.010962
 1773 Fit       0.001390
 1774 Fit       0.001624
 1775 Fit       0.001512
 1776 Fit       0.001091
 1777 Fit       0.001285
 1778 Fit       0.001925
 1779 Fit       0.002076
 1780 Fit       0.001612
 1781 Fit       0.001102
 1782 Fit       0.001253
 1783 Fit       0.002043
 1784 Fit       0.002289
 1785 Fit       0.001852
 1786 Fit       0.001306
 1787 Fit       0.002390
 1788 Fit       0.002660
 1789 Fit       0.003136
 1790 Fit       0.002557
 1791 Fit       0.001574
 1792 Fit       0.003950
 1793 Fit       0.003709
 1794 Fit       0.003191
 1795 Fit       0.002241
 1796 Fit       0.004467
 1797 Fit       0.004026
 1798 Fit       0.003263
 1799 Fit       0.002576
 1800 Fit       0.005092
 1801 Fit       0.004526
 1802 Fit      -0.000583
 1803 Fit       0.000275
 1804 Fit       0.000371
 1805 Fit      -0.000531
 1806 Fit       0.001036
 1807 Fit       0.001357
 1808 Fit       0.001165
 1809 Fit      -0.000368
 1810 Fit       0.000387
 1811 Fit       0.001827
 1812 Fit       0.002594
 1813 Fit       0.000526
 1814 Fit       0.001051
 1815 Fit       0.002431
 1816 Fit       0.000284
 1817 Fit       0.000478
 1818 Fit       0.001281
 1819 Fit       0.001251
 1820 Fit      -0.000040
 1821 Fit       0.001207
 1822 Fit       0.002061
 1823 Fit       0.002089
 1824 Fit       0.001307
 1825 Fit      -0.000015
 1826 Fit       0.001813
 1827 Fit       0.002337
 1828 Fit       0.002205
 1829 Fit       0.001617
 1830 Fit       0.000847
 1831 Fit       0.002166
 1832 Fit       0.002293
 1833 Fit       0.001862
 1834 Fit       0.000928
 1835 Fit       0.000846
 1836 Fit       0.000920
 1837 Fit       0.000713
 1838 Fit       0.000510
 1839 Fit       0.000506
 1840 Fit       0.000348
 1841 Fit       0.000839
 1842 Fit       0.000440
 1843 Fit       0.000041
 1844 Fit      -0.000246
 1845 Fit      -0.000503
 1846 Fit      -0.000630
 1847 Fit      -0.000326
 1848 Fit      -0.001485
 1849 Fit      -0.002066
 1850 Fit      -0.002360
 1851 Fit      -0.002504
 1852 Fit      -0.002408
 1853 Fit      -0.001402
 1854 Fit      -0.000020
 1855 Fit      -0.003652
 1856 Fit      -0.001458
 1857 Fit       0.000273
 1858 Fit       0.001433
 1859 Fit      -0.004658
 1860 Fit      -0.001396
 1861 Fit       0.000900
 1862 Fit       0.002411
 1863 Fit      -0.004906
 1864 Fit      -0.000361
 1865 Fit       0.002523
 1866 Fit      -0.005644
 1867 Fit      -0.006220
 1868 Fit      -0.005664
 1869 Fit      -0.007871
 1870 Fit      -0.011303
 1871 Fit      -0.012956
 1872 Fit      -0.011239
 1873 Fit      -0.008117
 1874 Fit      -0.023685
 1875 Fit      -0.014632
 1876 Fit      -0.021105
 1877 Fit       0.001317
 1878 Fit      -0.000121
 1879 Fit       0.001810
 1880 Fit       0.000352
 1881 Fit      -0.001648
 1882 Fit       0.003174
 1883 Fit       0.002776
 1884 Fit       0.001155
 1885 Fit      -0.001250
 1886 Fit       0.004238
 1887 Fit      -0.000594
 1888 Fit      -0.008651
 1889 Fit      -0.014131
 1890 Fit      -0.001682
 1891 Fit       0.006704
 1892 Fit      -0.002682
 1893 Fit       0.005502
 1894 Fit       0.012612
 1895 Fit       0.005878
 1896 Fit       0.010976
 1897 Fit       0.007454
 1898 Fit       0.010780
 1899 Fit      -0.005247
 1900 Fit       0.005929
 1901 Fit      -0.002787
 1902 Fit      -0.018046
 1903 Fit       0.009991
 1904 Fit       0.002584
 1905 Fit      -0.011356
 1906 Fit       0.010937
 1907 Fit       0.004842
 1908 Fit      -0.007604
 1909 Fit       0.011214
 1910 Fit       0.008855
 1911 Fit       0.019747
 1912 Fit       0.026793
 1913 Fit       0.031296
 1914 Fit       0.035045
 1915 Fit       0.022353
 1916 Fit       0.029304
 1917 Fit       0.033110
 1918 Fit       0.035332
 1919 Fit       0.036666
 1920 Fit       0.025761
 1921 Fit       0.031315
 1922 Fit       0.033404
 1923 Fit       0.032682
 1924 Fit       0.019604
 1925 Fit       0.027964
 1926 Fit       0.029007
 1927 Fit       0.022645
 1928 Fit       0.016492
 1929 Fit       0.013560
 1930 Fit       0.019895
 1931 Fit       0.011700
 1932 Fit       0.020227
 1933 Fit       0.010367
 1934 Fit       0.021741
 1935 Fit       0.013572
 1936 Fit       0.018048
 1937 Fit       0.007678
 1938 Fit       0.012360
 1939 Fit       0.018880
 1940 Fit       0.012302
 1941 Fit       0.015593
 1942 Fit       0.020598
 1943 Fit       0.014702
 1944 Fit       0.015333
 1945 Fit       0.018307
 1946 Fit       0.022239
 1947 Fit       0.014769
 1948 Fit       0.016619
 1949 Fit       0.017540
 1950 Fit       0.013830
 1951 Fit      -0.032428
 1952 Fit      -0.040091
 1953 Fit      -0.033410
 1954 Fit      -0.026289
 1955 Fit      -0.022408
 1956 Fit      -0.042384
 1957 Fit      -0.038842
 1958 Fit      -0.030376
 1959 Fit      -0.022634
 1960 Fit      -0.041792
 1961 Fit      -0.030058
 1962 Fit      -0.034816
 1963 Fit      -0.011894
 1964 Fit      -0.019814
 1965 Fit      -0.031253
 1966 Fit      -0.021574
 1967 Fit      -0.034122
 1968 Fit      -0.038399
 1969 Fit      -0.034843
 1970 Fit      -0.028912
 1971 Fit      -0.027443
 1972 Fit      -0.032277
 1973 Fit      -0.036809
 1974 Fit      -0.041451
 1975 Fit      -0.039112
 1976 Fit      -0.024172
 1977 Fit      -0.029839
 1978 Fit      -0.034024
 1979 Fit      -0.037487
 1980 Fit      -0.040277
 1981 Fit      -0.019953
 1982 Fit      -0.026151
 1983 Fit      -0.030387
 1984 Fit      -0.033882
 1985 Fit      -0.037396
 1986 Fit      -0.041372
 1987 Fit      -0.009994
 1988 Fit      -0.017374
 1989 Fit      -0.022081
 1990 Fit      -0.025344
 1991 Fit      -0.028560
 1992 Fit      -0.041162
 1993 Fit      -0.038083
 1994 Fit      -0.033189
 1995 Fit      -0.043057
 1996 Fit      -0.039202
 1997 Fit      -0.036894
 1998 Fit      -0.032695
 1999 Fit      -0.026214
 2000 Fit      -0.038280
 2001 Fit      -0.039797
 2002 Fit      -0.036187
 2003 Fit      -0.034116
 2004 Fit      -0.029921
 2005 Fit      -0.022089
 2006 Fit      -0.033756
 2007 Fit      -0.036362
 2008 Fit      -0.032170
 2009 Fit      -0.029553
 2010 Fit      -0.022975
 2011 Fit      -0.026673
 2012 Fit      -0.031703
 2013 Fit      -0.026594
 2014 Fit      -0.023114
 2015 Fit      -0.016250
 2016 Fit      -0.024917
 2017 Fit      -0.017860
 2018 Fit      -0.010087
 2019 Fit      -0.010886
 2020 Fit      -0.007214
 2021 Fit      -0.009756
 2022 Fit       0.003102
 2023 Fit       0.001150
 2024 Fit      -0.002154
 2025 Fit      -0.008779
 2026 Fit      -0.012433
 2027 Fit       0.007832
 2028 Fit       0.005961
 2029 Fit       0.003027
 2030 Fit      -0.002334
 2031 Fit      -0.001130
 2032 Fit       0.009801
 2033 Fit       0.007526
 2034 Fit       0.003961
 2035 Fit       0.009266
 2036 Fit       0.009242
 2037 Fit       0.002709
 2038 Fit       0.013614
 2039 Fit       0.011736
 2040 Fit       0.008673
 2041 Fit       0.005535
 2042 Fit       0.012491
 2043 Fit       0.014011
 2044 Fit       0.013384
 2045 Fit       0.011761
 2046 Fit       0.014154
 2047 Fit       0.014233
 2048 Fit       0.013452
 2049 Fit      -0.002702
 2050 Fit      -0.007401
 2051 Fit       0.004700
 2052 Fit       0.009289
 2053 Fit       0.009502
 2054 Fit      -0.009277
 2055 Fit       0.012408
 2056 Fit       0.011846
 2057 Fit       0.014150
 2058 Fit       0.012776
 2059 Fit       0.011631
 2060 Fit       0.007015
 2061 Fit       0.013086
 2062 Fit       0.011496
 2063 Fit       0.002824
 2064 Fit       0.005524
 2065 Fit       0.012083
 2066 Fit       0.014124
 2067 Fit       0.013758
 2068 Fit       0.014357
 2069 Fit       0.009743
 2070 Fit       0.012246
 2071 Fit       0.014150
 2072 Fit       0.014274
 2073 Fit       0.013436
 2074 Fit       0.011316
 2075 Fit       0.012979
 -----------------------------------------------------------------
 Leave Link  602 at Thu Jan 30 17:59:14 2025, MaxMem=   104857600 cpu:               0.3 elap:               0.3
 (Enter /home/pb777/GAUSSIAN/g16/l9999.exe)

 Test job not archived.
 1\1\GINC-BUMBU\SP\RHF\6-31G(d)\C19H23N5O3S1\PB777\30-Jan-2025\0\\#P HF
 /6-31G* GEOM(AllCheck) Guess(Read) NoSymm Pop=mk IOp(6/33=2) GFInput G
 FPrint\\Gaussian Calculation\\0,1\C,0,1.577154074,28.9229300681,6.9988
 32393\C,0,-1.6632999102,31.6472157412,7.9781696648\C,0,-0.3725870759,2
 6.3600396983,9.4039331994\C,0,-1.3043226126,25.6563778124,10.371386623
 5\C,0,-0.862791688,24.2017619591,10.5590514328\C,0,-1.7726378864,23.46
 09115497,11.5380725721\C,0,-1.856651336,24.1847834422,12.8806029312\C,
 0,-2.2955213076,25.6363897157,12.6979584704\C,0,-1.3844102391,26.37594
 79092,11.7201921619\C,0,5.4401610478,26.1450197155,5.6728197734\C,0,5.
 039336681,25.0213342388,6.3940171594\C,0,3.869154923,25.0501591595,7.1
 476734595\C,0,3.078384808,26.1897016608,7.1770053187\N,0,0.9149068504,
 28.071169389,7.7988864583\C,0,-0.2122017137,28.4811725741,8.3691159248
 \O,0,-0.8938031303,27.6725893811,9.165705715\C,0,-0.6928411247,29.7785
 834428,8.1313869239\N,0,-1.7946369718,30.488429629,8.5584651228\N,0,-0
 .5372566902,31.7472612244,7.1901202217\C,0,0.1082289543,30.5454458242,
 7.2751453\N,0,1.2410178543,30.1782230326,6.6842960973\N,0,2.7485800491
 ,28.5102910622,6.4028610396\C,0,3.4627336757,27.3247689536,6.444655930
 9\C,0,4.6559052985,27.2835608312,5.6985454221\H,0,-2.3517276407,32.476
 342251,8.0809598351\H,0,-0.3047083951,25.8238396563,8.4494571855\H,0,0
 .6403870558,26.4449090609,9.817589181\H,0,-2.3089780865,25.6556328533,
 9.9209178487\H,0,0.1691025804,24.1862185109,10.9426812647\H,0,-0.84508
 43676,23.6828176194,9.5912195435\H,0,-1.414201822,22.4337481795,11.678
 0920549\H,0,-2.7804856234,23.3844528757,11.1044265428\H,0,-0.868818118
 5,24.1639796086,13.3642425887\H,0,-2.544886238,23.6581036291,13.553243
 1839\H,0,-2.3100432106,26.1561145689,13.6637915899\H,0,-3.3271906192,2
 5.6581600027,12.3171023595\H,0,-1.7300839199,27.4047892702,11.57119234
 09\H,0,-0.3704912048,26.4398277699,12.1458215785\H,0,6.3726704298,26.1
 25280663,5.1168437636\H,0,3.5896970848,24.1781922607,7.7320160802\H,0,
 2.1714973867,26.2224526219,7.7641219233\H,0,-0.2329331659,32.544019765
 2,6.652236785\H,0,3.146952345,29.2456650878,5.8354826243\H,0,4.9699545
 146,28.1648222284,5.1432155664\S,0,6.0320380469,23.551443107,6.3562269
 931\O,0,5.7532868915,22.7832779282,7.5704832724\O,0,7.3983848981,23.93
 75212005,6.0000988378\H,0,5.9553240145,21.6975588015,4.9148776623\H,0,
 4.3199569008,22.3860350038,5.1675821397\C,0,5.3694392106,22.6183684924
 ,4.9768167473\H,0,5.4813385233,23.1993589688,4.0593611904\\Version=ES6
 4L-G16RevA.03\HF=-1627.2050908\RMSD=7.442e-09\Dipole=-1.8945637,1.8061
 195,-1.4214644\Quadrupole=-83.9111573,159.9689625,-76.0578052,-78.6675
 261,-36.2675133,-47.1034294\PG=C01 [X(C19H23N5O3S1)]\\@


 HE WHO LAUGHS LAST PROBABLY DIDN'T GET THE JOKE.
 Job cpu time:       0 days  0 hours  2 minutes 20.8 seconds.
 Elapsed time:       0 days  0 hours  2 minutes 21.4 seconds.
 File lengths (MBytes):  RWF=    117 Int=      0 D2E=      0 Chk=     21 Scr=      1
 Normal termination of Gaussian 16 at Thu Jan 30 17:59:14 2025.
