 Entering Gaussian System, Link 0=/home/pb777/GAUSSIAN/g16/g16
 Initial command:
 /home/pb777/GAUSSIAN/g16/l1.exe "/home/pb777/GAUSSIAN/g16/scratch/Gau-1062481.inp" -scrdir="/home/pb777/GAUSSIAN/g16/scratch/"
 Entering Link 1 = /home/pb777/GAUSSIAN/g16/l1.exe PID=   1062482.
  
 Copyright (c) 1988,1990,1992,1993,1995,1998,2003,2009,2016,
            Gaussian, Inc.  All Rights Reserved.
  
 This is part of the Gaussian(R) 16 program.  It is based on
 the Gaussian(R) 09 system (copyright 2009, Gaussian, Inc.),
 the Gaussian(R) 03 system (copyright 2003, Gaussian, Inc.),
 the Gaussian(R) 98 system (copyright 1998, Gaussian, Inc.),
 the Gaussian(R) 94 system (copyright 1995, Gaussian, Inc.),
 the Gaussian 92(TM) system (copyright 1992, Gaussian, Inc.),
 the Gaussian 90(TM) system (copyright 1990, Gaussian, Inc.),
 the Gaussian 88(TM) system (copyright 1988, Gaussian, Inc.),
 the Gaussian 86(TM) system (copyright 1986, Carnegie Mellon
 University), and the Gaussian 82(TM) system (copyright 1983,
 Carnegie Mellon University). Gaussian is a federally registered
 trademark of Gaussian, Inc.
  
 This software contains proprietary and confidential information,
 including trade secrets, belonging to Gaussian, Inc.
  
 This software is provided under written license and may be
 used, copied, transmitted, or stored only in accord with that
 written license.
  
 The following legend is applicable only to US Government
 contracts under FAR:
  
                    RESTRICTED RIGHTS LEGEND
  
 Use, reproduction and disclosure by the US Government is
 subject to restrictions as set forth in subparagraphs (a)
 and (c) of the Commercial Computer Software - Restricted
 Rights clause in FAR 52.227-19.
  
 Gaussian, Inc.
 340 Quinnipiac St., Bldg. 40, Wallingford CT 06492
  
  
 ---------------------------------------------------------------
 Warning -- This program may not be used in any manner that
 competes with the business of Gaussian, Inc. or will provide
 assistance to any competitor of Gaussian, Inc.  The licensee
 of this program is prohibited from giving any competitor of
 Gaussian, Inc. access to this program.  By using this program,
 the user acknowledges that Gaussian, Inc. is engaged in the
 business of creating and licensing software in the field of
 computational chemistry and represents and warrants to the
 licensee that it is not a competitor of Gaussian, Inc. and that
 it will not use this program in any manner prohibited above.
 ---------------------------------------------------------------
  

 Cite this work as:
 Gaussian 16, Revision A.03,
 M. J. Frisch, G. W. Trucks, H. B. Schlegel, G. E. Scuseria, 
 M. A. Robb, J. R. Cheeseman, G. Scalmani, V. Barone, 
 G. A. Petersson, H. Nakatsuji, X. Li, M. Caricato, A. V. Marenich, 
 J. Bloino, B. G. Janesko, R. Gomperts, B. Mennucci, H. P. Hratchian, 
 J. V. Ortiz, A. F. Izmaylov, J. L. Sonnenberg, D. Williams-Young, 
 F. Ding, F. Lipparini, F. Egidi, J. Goings, B. Peng, A. Petrone, 
 T. Henderson, D. Ranasinghe, V. G. Zakrzewski, J. Gao, N. Rega, 
 G. Zheng, W. Liang, M. Hada, M. Ehara, K. Toyota, R. Fukuda, 
 J. Hasegawa, M. Ishida, T. Nakajima, Y. Honda, O. Kitao, H. Nakai, 
 T. Vreven, K. Throssell, J. A. Montgomery, Jr., J. E. Peralta, 
 F. Ogliaro, M. J. Bearpark, J. J. Heyd, E. N. Brothers, K. N. Kudin, 
 V. N. Staroverov, T. A. Keith, R. Kobayashi, J. Normand, 
 K. Raghavachari, A. P. Rendell, J. C. Burant, S. S. Iyengar, 
 J. Tomasi, M. Cossi, J. M. Millam, M. Klene, C. Adamo, R. Cammi, 
 J. W. Ochterski, R. L. Martin, K. Morokuma, O. Farkas, 
 J. B. Foresman, and D. J. Fox, Gaussian, Inc., Wallingford CT, 2016.
 
 ******************************************
 Gaussian 16:  ES64L-G16RevA.03 25-Dec-2016
                30-Jan-2025 
 ******************************************
 %NPROC=1', f'%MEM=512MB
 Will use up to    1 processors via shared memory.
 %chk=binder_1h1q.antechamber.chk
 ------------------------
 #P HF/6-31G* OPT(CalcFC)
 ------------------------
 1/10=4,18=20,19=15,38=1/1,3;
 2/9=110,12=2,17=6,18=5,40=1/2;
 3/5=1,6=6,7=1,11=9,25=1,30=1,71=2,140=1/1,2,3;
 4//1;
 5/5=2,38=5/2;
 8/6=4,10=90,11=11/1;
 11/6=1,8=1,9=11,15=111,16=1/1,2,10;
 10/6=1,13=1/2;
 6/7=2,8=2,9=2,10=2,28=1/1;
 7/10=1,18=20,25=1/1,2,3,16;
 1/10=4,18=20,19=15/3(2);
 2/9=110/2;
 99//99;
 2/9=110/2;
 3/5=1,6=6,7=1,11=9,25=1,30=1,71=1/1,2,3;
 4/5=5,16=3,69=1/1;
 5/5=2,38=5/2;
 7//1,2,3,16;
 1/18=20,19=15/3(-5);
 2/9=110/2;
 6/7=2,8=2,9=2,10=2,19=2,28=1/1;
 99/9=1/99;
 Leave Link    1 at Thu Jan 30 14:39:46 2025, MaxMem=           0 cpu:               0.0 elap:               0.0
 (Enter /home/pb777/GAUSSIAN/g16/l101.exe)
 --------------------
 Gaussian Calculation
 --------------------
 Symbolic Z-matrix:
 Charge =  0 Multiplicity = 1
 C                     1.422     29.034    6.768 
 C                    -1.45      32.163    8.008 
 C                    -0.582     26.625    8.978 
 C                    -1.25      25.767    10.081 
 C                    -1.355     24.331    9.527 
 C                    -1.653     23.273    10.603 
 C                    -0.781     23.343    11.865 
 C                    -0.712     24.779    12.432 
 C                    -0.388     25.86     11.38 
 C                     4.764     25.853    5.516 
 C                     4.794     25.242    6.767 
 C                     4.085     25.787    7.836 
 C                     3.336     26.945    7.64 
 N                     0.488     28.18     7.498 
 C                    -0.568     28.637    8.086 
 O                    -1.389     27.808    8.752 
 C                    -0.837     30.059    7.987 
 N                    -1.806     31.022    8.425 
 N                    -0.337     32.096    7.318 
 C                     0.012     30.844    7.311 
 N                     1.172     30.278    6.709 
 N                     2.523     28.721    6.157 
 C                     3.284     27.562    6.382 
 C                     4.021     27.017    5.332 
 H                    -1.973     33.085    8.159 
 H                    -0.54      26.054    8.043 
 H                     0.454     26.776    9.311 
 H                    -2.258     26.125    10.296 
 H                    -0.409     24.042    9.063 
 H                    -2.106     24.282    8.736 
 H                    -1.609     22.271    10.176 
 H                    -2.684     23.422    10.916 
 H                     0.23      23.014    11.618 
 H                    -1.152     22.652    12.623 
 H                    -0.027     24.811    13.272 
 H                    -1.687     25.018    12.862 
 H                    -0.474     26.853    11.824 
 H                     0.671     25.729    11.147 
 H                     5.333     25.442    4.694 
 H                     5.393     24.356    6.913 
 H                     4.12      25.321    8.812 
 H                     2.79      27.362    8.473 
 H                     0.088     32.896    6.844 
 H                     2.95      29.456    5.611 
 H                     4.024     27.496    4.37 
 
 ITRead=  0  0  0  0  0  0  0  0  0  0  0  0  0  0  0  0  0  0  0  0
 ITRead=  0  0  0  0  0  0  0  0  0  0  0  0  0  0  0  0  0  0  0  0
 ITRead=  0  0  0  0  0
 MicOpt= -1 -1 -1 -1 -1 -1 -1 -1 -1 -1 -1 -1 -1 -1 -1 -1 -1 -1 -1 -1
 MicOpt= -1 -1 -1 -1 -1 -1 -1 -1 -1 -1 -1 -1 -1 -1 -1 -1 -1 -1 -1 -1
 MicOpt= -1 -1 -1 -1 -1
 NAtoms=     45 NQM=       45 NQMF=       0 NMMI=      0 NMMIF=      0
                NMic=       0 NMicF=      0.
                    Isotopes and Nuclear Properties:
 (Nuclear quadrupole moments (NQMom) in fm**2, nuclear magnetic moments (NMagM)
  in nuclear magnetons)

  Atom         1           2           3           4           5           6           7           8           9          10
 IAtWgt=          12          12          12          12          12          12          12          12          12          12
 AtmWgt=  12.0000000  12.0000000  12.0000000  12.0000000  12.0000000  12.0000000  12.0000000  12.0000000  12.0000000  12.0000000
 NucSpn=           0           0           0           0           0           0           0           0           0           0
 AtZEff=  -0.0000000  -0.0000000  -0.0000000  -0.0000000  -0.0000000  -0.0000000  -0.0000000  -0.0000000  -0.0000000  -0.0000000
 NQMom=    0.0000000   0.0000000   0.0000000   0.0000000   0.0000000   0.0000000   0.0000000   0.0000000   0.0000000   0.0000000
 NMagM=    0.0000000   0.0000000   0.0000000   0.0000000   0.0000000   0.0000000   0.0000000   0.0000000   0.0000000   0.0000000
 AtZNuc=   6.0000000   6.0000000   6.0000000   6.0000000   6.0000000   6.0000000   6.0000000   6.0000000   6.0000000   6.0000000

  Atom        11          12          13          14          15          16          17          18          19          20
 IAtWgt=          12          12          12          14          12          16          12          14          14          12
 AtmWgt=  12.0000000  12.0000000  12.0000000  14.0030740  12.0000000  15.9949146  12.0000000  14.0030740  14.0030740  12.0000000
 NucSpn=           0           0           0           2           0           0           0           2           2           0
 AtZEff=  -0.0000000  -0.0000000  -0.0000000  -0.0000000  -0.0000000  -0.0000000  -0.0000000  -0.0000000  -0.0000000  -0.0000000
 NQMom=    0.0000000   0.0000000   0.0000000   2.0440000   0.0000000   0.0000000   0.0000000   2.0440000   2.0440000   0.0000000
 NMagM=    0.0000000   0.0000000   0.0000000   0.4037610   0.0000000   0.0000000   0.0000000   0.4037610   0.4037610   0.0000000
 AtZNuc=   6.0000000   6.0000000   6.0000000   7.0000000   6.0000000   8.0000000   6.0000000   7.0000000   7.0000000   6.0000000

  Atom        21          22          23          24          25          26          27          28          29          30
 IAtWgt=          14          14          12          12           1           1           1           1           1           1
 AtmWgt=  14.0030740  14.0030740  12.0000000  12.0000000   1.0078250   1.0078250   1.0078250   1.0078250   1.0078250   1.0078250
 NucSpn=           2           2           0           0           1           1           1           1           1           1
 AtZEff=  -0.0000000  -0.0000000  -0.0000000  -0.0000000  -0.0000000  -0.0000000  -0.0000000  -0.0000000  -0.0000000  -0.0000000
 NQMom=    2.0440000   2.0440000   0.0000000   0.0000000   0.0000000   0.0000000   0.0000000   0.0000000   0.0000000   0.0000000
 NMagM=    0.4037610   0.4037610   0.0000000   0.0000000   2.7928460   2.7928460   2.7928460   2.7928460   2.7928460   2.7928460
 AtZNuc=   7.0000000   7.0000000   6.0000000   6.0000000   1.0000000   1.0000000   1.0000000   1.0000000   1.0000000   1.0000000

  Atom        31          32          33          34          35          36          37          38          39          40
 IAtWgt=           1           1           1           1           1           1           1           1           1           1
 AtmWgt=   1.0078250   1.0078250   1.0078250   1.0078250   1.0078250   1.0078250   1.0078250   1.0078250   1.0078250   1.0078250
 NucSpn=           1           1           1           1           1           1           1           1           1           1
 AtZEff=  -0.0000000  -0.0000000  -0.0000000  -0.0000000  -0.0000000  -0.0000000  -0.0000000  -0.0000000  -0.0000000  -0.0000000
 NQMom=    0.0000000   0.0000000   0.0000000   0.0000000   0.0000000   0.0000000   0.0000000   0.0000000   0.0000000   0.0000000
 NMagM=    2.7928460   2.7928460   2.7928460   2.7928460   2.7928460   2.7928460   2.7928460   2.7928460   2.7928460   2.7928460
 AtZNuc=   1.0000000   1.0000000   1.0000000   1.0000000   1.0000000   1.0000000   1.0000000   1.0000000   1.0000000   1.0000000

  Atom        41          42          43          44          45
 IAtWgt=           1           1           1           1           1
 AtmWgt=   1.0078250   1.0078250   1.0078250   1.0078250   1.0078250
 NucSpn=           1           1           1           1           1
 AtZEff=  -0.0000000  -0.0000000  -0.0000000  -0.0000000  -0.0000000
 NQMom=    0.0000000   0.0000000   0.0000000   0.0000000   0.0000000
 NMagM=    2.7928460   2.7928460   2.7928460   2.7928460   2.7928460
 AtZNuc=   1.0000000   1.0000000   1.0000000   1.0000000   1.0000000
 Leave Link  101 at Thu Jan 30 14:39:46 2025, MaxMem=   104857600 cpu:               0.1 elap:               0.2
 (Enter /home/pb777/GAUSSIAN/g16/l103.exe)

 GradGradGradGradGradGradGradGradGradGradGradGradGradGradGradGradGradGrad
 Berny optimization.
 Initialization pass.
                           ----------------------------
                           !    Initial Parameters    !
                           ! (Angstroms and Degrees)  !
 --------------------------                            --------------------------
 ! Name  Definition              Value          Derivative Info.                !
 --------------------------------------------------------------------------------
 ! R1    R(1,14)                 1.461          calculate D2E/DX2 analytically  !
 ! R2    R(1,21)                 1.2702         calculate D2E/DX2 analytically  !
 ! R3    R(1,22)                 1.2975         calculate D2E/DX2 analytically  !
 ! R4    R(2,18)                 1.2659         calculate D2E/DX2 analytically  !
 ! R5    R(2,19)                 1.3112         calculate D2E/DX2 analytically  !
 ! R6    R(2,25)                 1.0707         calculate D2E/DX2 analytically  !
 ! R7    R(3,4)                  1.5489         calculate D2E/DX2 analytically  !
 ! R8    R(3,16)                 1.4498         calculate D2E/DX2 analytically  !
 ! R9    R(3,26)                 1.0964         calculate D2E/DX2 analytically  !
 ! R10   R(3,27)                 1.0986         calculate D2E/DX2 analytically  !
 ! R11   R(4,5)                  1.5427         calculate D2E/DX2 analytically  !
 ! R12   R(4,9)                  1.5618         calculate D2E/DX2 analytically  !
 ! R13   R(4,28)                 1.0911         calculate D2E/DX2 analytically  !
 ! R14   R(5,6)                  1.5382         calculate D2E/DX2 analytically  !
 ! R15   R(5,29)                 1.0926         calculate D2E/DX2 analytically  !
 ! R16   R(5,30)                 1.0918         calculate D2E/DX2 analytically  !
 ! R17   R(6,7)                  1.5356         calculate D2E/DX2 analytically  !
 ! R18   R(6,31)                 1.0901         calculate D2E/DX2 analytically  !
 ! R19   R(6,32)                 1.0877         calculate D2E/DX2 analytically  !
 ! R20   R(7,8)                  1.5454         calculate D2E/DX2 analytically  !
 ! R21   R(7,33)                 1.0915         calculate D2E/DX2 analytically  !
 ! R22   R(7,34)                 1.0907         calculate D2E/DX2 analytically  !
 ! R23   R(8,9)                  1.5428         calculate D2E/DX2 analytically  !
 ! R24   R(8,35)                 1.0844         calculate D2E/DX2 analytically  !
 ! R25   R(8,36)                 1.0921         calculate D2E/DX2 analytically  !
 ! R26   R(9,37)                 1.0911         calculate D2E/DX2 analytically  !
 ! R27   R(9,38)                 1.0922         calculate D2E/DX2 analytically  !
 ! R28   R(10,11)                1.3926         calculate D2E/DX2 analytically  !
 ! R29   R(10,24)                1.3931         calculate D2E/DX2 analytically  !
 ! R30   R(10,39)                1.0809         calculate D2E/DX2 analytically  !
 ! R31   R(11,12)                1.3937         calculate D2E/DX2 analytically  !
 ! R32   R(11,40)                1.0794         calculate D2E/DX2 analytically  !
 ! R33   R(12,13)                1.393          calculate D2E/DX2 analytically  !
 ! R34   R(12,41)                1.0821         calculate D2E/DX2 analytically  !
 ! R35   R(13,23)                1.4021         calculate D2E/DX2 analytically  !
 ! R36   R(13,42)                1.0798         calculate D2E/DX2 analytically  !
 ! R37   R(14,15)                1.2922         calculate D2E/DX2 analytically  !
 ! R38   R(15,16)                1.3434         calculate D2E/DX2 analytically  !
 ! R39   R(15,17)                1.4506         calculate D2E/DX2 analytically  !
 ! R40   R(17,18)                1.4346         calculate D2E/DX2 analytically  !
 ! R41   R(17,20)                1.3394         calculate D2E/DX2 analytically  !
 ! R42   R(19,20)                1.2998         calculate D2E/DX2 analytically  !
 ! R43   R(19,43)                1.0224         calculate D2E/DX2 analytically  !
 ! R44   R(20,21)                1.4242         calculate D2E/DX2 analytically  !
 ! R45   R(22,23)                1.4046         calculate D2E/DX2 analytically  !
 ! R46   R(22,44)                1.0103         calculate D2E/DX2 analytically  !
 ! R47   R(23,24)                1.3938         calculate D2E/DX2 analytically  !
 ! R48   R(24,45)                1.0747         calculate D2E/DX2 analytically  !
 ! A1    A(14,1,21)            118.0237         calculate D2E/DX2 analytically  !
 ! A2    A(14,1,22)            129.5499         calculate D2E/DX2 analytically  !
 ! A3    A(21,1,22)            112.4195         calculate D2E/DX2 analytically  !
 ! A4    A(18,2,19)            111.4686         calculate D2E/DX2 analytically  !
 ! A5    A(18,2,25)            126.3224         calculate D2E/DX2 analytically  !
 ! A6    A(19,2,25)            122.1965         calculate D2E/DX2 analytically  !
 ! A7    A(4,3,16)             108.8423         calculate D2E/DX2 analytically  !
 ! A8    A(4,3,26)             109.5929         calculate D2E/DX2 analytically  !
 ! A9    A(4,3,27)             105.4848         calculate D2E/DX2 analytically  !
 ! A10   A(16,3,26)            108.2618         calculate D2E/DX2 analytically  !
 ! A11   A(16,3,27)            117.3875         calculate D2E/DX2 analytically  !
 ! A12   A(26,3,27)            107.0946         calculate D2E/DX2 analytically  !
 ! A13   A(3,4,5)              106.8132         calculate D2E/DX2 analytically  !
 ! A14   A(3,4,9)              108.7409         calculate D2E/DX2 analytically  !
 ! A15   A(3,4,28)             110.9167         calculate D2E/DX2 analytically  !
 ! A16   A(5,4,9)              113.059          calculate D2E/DX2 analytically  !
 ! A17   A(5,4,28)             108.2581         calculate D2E/DX2 analytically  !
 ! A18   A(9,4,28)             109.0551         calculate D2E/DX2 analytically  !
 ! A19   A(4,5,6)              113.7174         calculate D2E/DX2 analytically  !
 ! A20   A(4,5,29)             109.8638         calculate D2E/DX2 analytically  !
 ! A21   A(4,5,30)             110.4108         calculate D2E/DX2 analytically  !
 ! A22   A(6,5,29)             106.4326         calculate D2E/DX2 analytically  !
 ! A23   A(6,5,30)             110.0394         calculate D2E/DX2 analytically  !
 ! A24   A(29,5,30)            106.0225         calculate D2E/DX2 analytically  !
 ! A25   A(5,6,7)              115.6925         calculate D2E/DX2 analytically  !
 ! A26   A(5,6,31)             110.5129         calculate D2E/DX2 analytically  !
 ! A27   A(5,6,32)             106.9005         calculate D2E/DX2 analytically  !
 ! A28   A(7,6,31)             109.9325         calculate D2E/DX2 analytically  !
 ! A29   A(7,6,32)             107.1888         calculate D2E/DX2 analytically  !
 ! A30   A(31,6,32)            106.0749         calculate D2E/DX2 analytically  !
 ! A31   A(6,7,8)              111.6688         calculate D2E/DX2 analytically  !
 ! A32   A(6,7,33)             109.0426         calculate D2E/DX2 analytically  !
 ! A33   A(6,7,34)             110.4329         calculate D2E/DX2 analytically  !
 ! A34   A(8,7,33)             108.7686         calculate D2E/DX2 analytically  !
 ! A35   A(8,7,34)             110.4189         calculate D2E/DX2 analytically  !
 ! A36   A(33,7,34)            106.3414         calculate D2E/DX2 analytically  !
 ! A37   A(7,8,9)              114.2214         calculate D2E/DX2 analytically  !
 ! A38   A(7,8,35)             109.8668         calculate D2E/DX2 analytically  !
 ! A39   A(7,8,36)             107.9358         calculate D2E/DX2 analytically  !
 ! A40   A(9,8,35)             112.0164         calculate D2E/DX2 analytically  !
 ! A41   A(9,8,36)             107.616          calculate D2E/DX2 analytically  !
 ! A42   A(35,8,36)            104.6261         calculate D2E/DX2 analytically  !
 ! A43   A(4,9,8)              114.1745         calculate D2E/DX2 analytically  !
 ! A44   A(4,9,37)             110.4349         calculate D2E/DX2 analytically  !
 ! A45   A(4,9,38)             110.5227         calculate D2E/DX2 analytically  !
 ! A46   A(8,9,37)             110.0986         calculate D2E/DX2 analytically  !
 ! A47   A(8,9,38)             105.3697         calculate D2E/DX2 analytically  !
 ! A48   A(37,9,38)            105.8059         calculate D2E/DX2 analytically  !
 ! A49   A(11,10,24)           119.7844         calculate D2E/DX2 analytically  !
 ! A50   A(11,10,39)           120.3309         calculate D2E/DX2 analytically  !
 ! A51   A(24,10,39)           119.8683         calculate D2E/DX2 analytically  !
 ! A52   A(10,11,12)           120.4315         calculate D2E/DX2 analytically  !
 ! A53   A(10,11,40)           119.5781         calculate D2E/DX2 analytically  !
 ! A54   A(12,11,40)           119.9688         calculate D2E/DX2 analytically  !
 ! A55   A(11,12,13)           119.3856         calculate D2E/DX2 analytically  !
 ! A56   A(11,12,41)           120.4608         calculate D2E/DX2 analytically  !
 ! A57   A(13,12,41)           120.1522         calculate D2E/DX2 analytically  !
 ! A58   A(12,13,23)           120.7972         calculate D2E/DX2 analytically  !
 ! A59   A(12,13,42)           118.9728         calculate D2E/DX2 analytically  !
 ! A60   A(23,13,42)           120.2297         calculate D2E/DX2 analytically  !
 ! A61   A(1,14,15)            122.8931         calculate D2E/DX2 analytically  !
 ! A62   A(14,15,16)           120.4487         calculate D2E/DX2 analytically  !
 ! A63   A(14,15,17)           117.8516         calculate D2E/DX2 analytically  !
 ! A64   A(16,15,17)           121.696          calculate D2E/DX2 analytically  !
 ! A65   A(3,16,15)            103.9239         calculate D2E/DX2 analytically  !
 ! A66   A(15,17,18)           139.6791         calculate D2E/DX2 analytically  !
 ! A67   A(15,17,20)           119.4344         calculate D2E/DX2 analytically  !
 ! A68   A(18,17,20)           100.8835         calculate D2E/DX2 analytically  !
 ! A69   A(2,18,17)            108.3309         calculate D2E/DX2 analytically  !
 ! A70   A(2,19,20)            106.2584         calculate D2E/DX2 analytically  !
 ! A71   A(2,19,43)            123.8364         calculate D2E/DX2 analytically  !
 ! A72   A(20,19,43)           129.7628         calculate D2E/DX2 analytically  !
 ! A73   A(17,20,19)           113.056          calculate D2E/DX2 analytically  !
 ! A74   A(17,20,21)           119.7814         calculate D2E/DX2 analytically  !
 ! A75   A(19,20,21)           127.1419         calculate D2E/DX2 analytically  !
 ! A76   A(1,21,20)            121.9969         calculate D2E/DX2 analytically  !
 ! A77   A(1,22,23)            125.686          calculate D2E/DX2 analytically  !
 ! A78   A(1,22,44)            115.9536         calculate D2E/DX2 analytically  !
 ! A79   A(23,22,44)           117.2502         calculate D2E/DX2 analytically  !
 ! A80   A(13,23,22)           121.7963         calculate D2E/DX2 analytically  !
 ! A81   A(13,23,24)           118.9615         calculate D2E/DX2 analytically  !
 ! A82   A(22,23,24)           119.2379         calculate D2E/DX2 analytically  !
 ! A83   A(10,24,23)           120.6117         calculate D2E/DX2 analytically  !
 ! A84   A(10,24,45)           119.2852         calculate D2E/DX2 analytically  !
 ! A85   A(23,24,45)           120.1026         calculate D2E/DX2 analytically  !
 ! D1    D(21,1,14,15)          -0.3723         calculate D2E/DX2 analytically  !
 ! D2    D(22,1,14,15)         178.5919         calculate D2E/DX2 analytically  !
 ! D3    D(14,1,21,20)          -0.941          calculate D2E/DX2 analytically  !
 ! D4    D(22,1,21,20)         179.9229         calculate D2E/DX2 analytically  !
 ! D5    D(14,1,22,23)         -20.2864         calculate D2E/DX2 analytically  !
 ! D6    D(14,1,22,44)         172.1509         calculate D2E/DX2 analytically  !
 ! D7    D(21,1,22,23)         158.7245         calculate D2E/DX2 analytically  !
 ! D8    D(21,1,22,44)          -8.8382         calculate D2E/DX2 analytically  !
 ! D9    D(19,2,18,17)           0.3509         calculate D2E/DX2 analytically  !
 ! D10   D(25,2,18,17)         179.0796         calculate D2E/DX2 analytically  !
 ! D11   D(18,2,19,20)          -0.0571         calculate D2E/DX2 analytically  !
 ! D12   D(18,2,19,43)         175.9787         calculate D2E/DX2 analytically  !
 ! D13   D(25,2,19,20)        -178.8468         calculate D2E/DX2 analytically  !
 ! D14   D(25,2,19,43)          -2.811          calculate D2E/DX2 analytically  !
 ! D15   D(16,3,4,5)           129.1727         calculate D2E/DX2 analytically  !
 ! D16   D(16,3,4,9)          -108.5107         calculate D2E/DX2 analytically  !
 ! D17   D(16,3,4,28)           11.4065         calculate D2E/DX2 analytically  !
 ! D18   D(26,3,4,5)            10.9489         calculate D2E/DX2 analytically  !
 ! D19   D(26,3,4,9)           133.2654         calculate D2E/DX2 analytically  !
 ! D20   D(26,3,4,28)         -106.8174         calculate D2E/DX2 analytically  !
 ! D21   D(27,3,4,5)          -104.036          calculate D2E/DX2 analytically  !
 ! D22   D(27,3,4,9)            18.2806         calculate D2E/DX2 analytically  !
 ! D23   D(27,3,4,28)          138.1978         calculate D2E/DX2 analytically  !
 ! D24   D(4,3,16,15)          163.4859         calculate D2E/DX2 analytically  !
 ! D25   D(26,3,16,15)         -77.4545         calculate D2E/DX2 analytically  !
 ! D26   D(27,3,16,15)          43.8488         calculate D2E/DX2 analytically  !
 ! D27   D(3,4,5,6)            164.9645         calculate D2E/DX2 analytically  !
 ! D28   D(3,4,5,29)            45.8044         calculate D2E/DX2 analytically  !
 ! D29   D(3,4,5,30)           -70.7837         calculate D2E/DX2 analytically  !
 ! D30   D(9,4,5,6)             45.3994         calculate D2E/DX2 analytically  !
 ! D31   D(9,4,5,29)           -73.7607         calculate D2E/DX2 analytically  !
 ! D32   D(9,4,5,30)           169.6512         calculate D2E/DX2 analytically  !
 ! D33   D(28,4,5,6)           -75.5363         calculate D2E/DX2 analytically  !
 ! D34   D(28,4,5,29)          165.3036         calculate D2E/DX2 analytically  !
 ! D35   D(28,4,5,30)           48.7155         calculate D2E/DX2 analytically  !
 ! D36   D(3,4,9,8)           -164.5526         calculate D2E/DX2 analytically  !
 ! D37   D(3,4,9,37)            70.7518         calculate D2E/DX2 analytically  !
 ! D38   D(3,4,9,38)           -45.9818         calculate D2E/DX2 analytically  !
 ! D39   D(5,4,9,8)            -46.1023         calculate D2E/DX2 analytically  !
 ! D40   D(5,4,9,37)          -170.7978         calculate D2E/DX2 analytically  !
 ! D41   D(5,4,9,38)            72.4686         calculate D2E/DX2 analytically  !
 ! D42   D(28,4,9,8)            74.3803         calculate D2E/DX2 analytically  !
 ! D43   D(28,4,9,37)          -50.3152         calculate D2E/DX2 analytically  !
 ! D44   D(28,4,9,38)         -167.0488         calculate D2E/DX2 analytically  !
 ! D45   D(4,5,6,7)            -48.1359         calculate D2E/DX2 analytically  !
 ! D46   D(4,5,6,31)          -173.8634         calculate D2E/DX2 analytically  !
 ! D47   D(4,5,6,32)            71.1339         calculate D2E/DX2 analytically  !
 ! D48   D(29,5,6,7)            72.9625         calculate D2E/DX2 analytically  !
 ! D49   D(29,5,6,31)          -52.765          calculate D2E/DX2 analytically  !
 ! D50   D(29,5,6,32)         -167.7677         calculate D2E/DX2 analytically  !
 ! D51   D(30,5,6,7)          -172.588          calculate D2E/DX2 analytically  !
 ! D52   D(30,5,6,31)           61.6846         calculate D2E/DX2 analytically  !
 ! D53   D(30,5,6,32)          -53.3181         calculate D2E/DX2 analytically  !
 ! D54   D(5,6,7,8)             48.8375         calculate D2E/DX2 analytically  !
 ! D55   D(5,6,7,33)           -71.3873         calculate D2E/DX2 analytically  !
 ! D56   D(5,6,7,34)           172.1111         calculate D2E/DX2 analytically  !
 ! D57   D(31,6,7,8)           174.8605         calculate D2E/DX2 analytically  !
 ! D58   D(31,6,7,33)           54.6357         calculate D2E/DX2 analytically  !
 ! D59   D(31,6,7,34)          -61.8659         calculate D2E/DX2 analytically  !
 ! D60   D(32,6,7,8)           -70.2741         calculate D2E/DX2 analytically  !
 ! D61   D(32,6,7,33)          169.5011         calculate D2E/DX2 analytically  !
 ! D62   D(32,6,7,34)           52.9995         calculate D2E/DX2 analytically  !
 ! D63   D(6,7,8,9)            -48.5808         calculate D2E/DX2 analytically  !
 ! D64   D(6,7,8,35)          -175.4239         calculate D2E/DX2 analytically  !
 ! D65   D(6,7,8,36)            71.0503         calculate D2E/DX2 analytically  !
 ! D66   D(33,7,8,9)            71.8045         calculate D2E/DX2 analytically  !
 ! D67   D(33,7,8,35)          -55.0386         calculate D2E/DX2 analytically  !
 ! D68   D(33,7,8,36)         -168.5644         calculate D2E/DX2 analytically  !
 ! D69   D(34,7,8,9)          -171.8623         calculate D2E/DX2 analytically  !
 ! D70   D(34,7,8,35)           61.2946         calculate D2E/DX2 analytically  !
 ! D71   D(34,7,8,36)          -52.2312         calculate D2E/DX2 analytically  !
 ! D72   D(7,8,9,4)             48.3294         calculate D2E/DX2 analytically  !
 ! D73   D(7,8,9,37)           173.2037         calculate D2E/DX2 analytically  !
 ! D74   D(7,8,9,38)           -73.1317         calculate D2E/DX2 analytically  !
 ! D75   D(35,8,9,4)           174.0518         calculate D2E/DX2 analytically  !
 ! D76   D(35,8,9,37)          -61.0739         calculate D2E/DX2 analytically  !
 ! D77   D(35,8,9,38)           52.5907         calculate D2E/DX2 analytically  !
 ! D78   D(36,8,9,4)           -71.4813         calculate D2E/DX2 analytically  !
 ! D79   D(36,8,9,37)           53.393          calculate D2E/DX2 analytically  !
 ! D80   D(36,8,9,38)          167.0576         calculate D2E/DX2 analytically  !
 ! D81   D(24,10,11,12)          0.0334         calculate D2E/DX2 analytically  !
 ! D82   D(24,10,11,40)       -178.28           calculate D2E/DX2 analytically  !
 ! D83   D(39,10,11,12)        178.5606         calculate D2E/DX2 analytically  !
 ! D84   D(39,10,11,40)          0.2473         calculate D2E/DX2 analytically  !
 ! D85   D(11,10,24,23)         -1.3268         calculate D2E/DX2 analytically  !
 ! D86   D(11,10,24,45)        178.4211         calculate D2E/DX2 analytically  !
 ! D87   D(39,10,24,23)       -179.8609         calculate D2E/DX2 analytically  !
 ! D88   D(39,10,24,45)         -0.113          calculate D2E/DX2 analytically  !
 ! D89   D(10,11,12,13)          0.4893         calculate D2E/DX2 analytically  !
 ! D90   D(10,11,12,41)       -179.0713         calculate D2E/DX2 analytically  !
 ! D91   D(40,11,12,13)        178.7961         calculate D2E/DX2 analytically  !
 ! D92   D(40,11,12,41)         -0.7645         calculate D2E/DX2 analytically  !
 ! D93   D(11,12,13,23)          0.2668         calculate D2E/DX2 analytically  !
 ! D94   D(11,12,13,42)       -179.9466         calculate D2E/DX2 analytically  !
 ! D95   D(41,12,13,23)        179.8288         calculate D2E/DX2 analytically  !
 ! D96   D(41,12,13,42)         -0.3846         calculate D2E/DX2 analytically  !
 ! D97   D(12,13,23,22)        179.2347         calculate D2E/DX2 analytically  !
 ! D98   D(12,13,23,24)         -1.5272         calculate D2E/DX2 analytically  !
 ! D99   D(42,13,23,22)         -0.5493         calculate D2E/DX2 analytically  !
 ! D100  D(42,13,23,24)        178.6889         calculate D2E/DX2 analytically  !
 ! D101  D(1,14,15,16)        -179.5335         calculate D2E/DX2 analytically  !
 ! D102  D(1,14,15,17)           1.1588         calculate D2E/DX2 analytically  !
 ! D103  D(14,15,16,3)          18.2854         calculate D2E/DX2 analytically  !
 ! D104  D(17,15,16,3)        -162.4339         calculate D2E/DX2 analytically  !
 ! D105  D(14,15,17,18)       -179.8954         calculate D2E/DX2 analytically  !
 ! D106  D(14,15,17,20)         -0.6675         calculate D2E/DX2 analytically  !
 ! D107  D(16,15,17,18)          0.806          calculate D2E/DX2 analytically  !
 ! D108  D(16,15,17,20)       -179.9661         calculate D2E/DX2 analytically  !
 ! D109  D(15,17,18,2)         178.8317         calculate D2E/DX2 analytically  !
 ! D110  D(20,17,18,2)          -0.4835         calculate D2E/DX2 analytically  !
 ! D111  D(15,17,20,19)       -179.0241         calculate D2E/DX2 analytically  !
 ! D112  D(15,17,20,21)         -0.5623         calculate D2E/DX2 analytically  !
 ! D113  D(18,17,20,19)          0.4672         calculate D2E/DX2 analytically  !
 ! D114  D(18,17,20,21)        178.9289         calculate D2E/DX2 analytically  !
 ! D115  D(2,19,20,17)          -0.2906         calculate D2E/DX2 analytically  !
 ! D116  D(2,19,20,21)        -178.6158         calculate D2E/DX2 analytically  !
 ! D117  D(43,19,20,17)       -176.0064         calculate D2E/DX2 analytically  !
 ! D118  D(43,19,20,21)          5.6685         calculate D2E/DX2 analytically  !
 ! D119  D(17,20,21,1)           1.4077         calculate D2E/DX2 analytically  !
 ! D120  D(19,20,21,1)         179.6321         calculate D2E/DX2 analytically  !
 ! D121  D(1,22,23,13)         -30.9175         calculate D2E/DX2 analytically  !
 ! D122  D(1,22,23,24)         149.8464         calculate D2E/DX2 analytically  !
 ! D123  D(44,22,23,13)        136.5011         calculate D2E/DX2 analytically  !
 ! D124  D(44,22,23,24)        -42.7349         calculate D2E/DX2 analytically  !
 ! D125  D(13,23,24,10)          2.0556         calculate D2E/DX2 analytically  !
 ! D126  D(13,23,24,45)       -177.6902         calculate D2E/DX2 analytically  !
 ! D127  D(22,23,24,10)       -178.6865         calculate D2E/DX2 analytically  !
 ! D128  D(22,23,24,45)          1.5677         calculate D2E/DX2 analytically  !
 --------------------------------------------------------------------------------
 Trust Radius=3.00D-01 FncErr=1.00D-07 GrdErr=1.00D-07 EigMax=2.50D+02 EigMin=1.00D-04
 Number of steps in this run=    270 maximum allowed number of steps=    270.
 GradGradGradGradGradGradGradGradGradGradGradGradGradGradGradGradGradGrad

 Leave Link  103 at Thu Jan 30 14:39:46 2025, MaxMem=   104857600 cpu:               0.0 elap:               0.0
 (Enter /home/pb777/GAUSSIAN/g16/l202.exe)
                          Input orientation:                          
 ---------------------------------------------------------------------
 Center     Atomic      Atomic             Coordinates (Angstroms)
 Number     Number       Type             X           Y           Z
 ---------------------------------------------------------------------
      1          6           0        1.422000   29.034000    6.768000
      2          6           0       -1.450000   32.163000    8.008000
      3          6           0       -0.582000   26.625000    8.978000
      4          6           0       -1.250000   25.767000   10.081000
      5          6           0       -1.355000   24.331000    9.527000
      6          6           0       -1.653000   23.273000   10.603000
      7          6           0       -0.781000   23.343000   11.865000
      8          6           0       -0.712000   24.779000   12.432000
      9          6           0       -0.388000   25.860000   11.380000
     10          6           0        4.764000   25.853000    5.516000
     11          6           0        4.794000   25.242000    6.767000
     12          6           0        4.085000   25.787000    7.836000
     13          6           0        3.336000   26.945000    7.640000
     14          7           0        0.488000   28.180000    7.498000
     15          6           0       -0.568000   28.637000    8.086000
     16          8           0       -1.389000   27.808000    8.752000
     17          6           0       -0.837000   30.059000    7.987000
     18          7           0       -1.806000   31.022000    8.425000
     19          7           0       -0.337000   32.096000    7.318000
     20          6           0        0.012000   30.844000    7.311000
     21          7           0        1.172000   30.278000    6.709000
     22          7           0        2.523000   28.721000    6.157000
     23          6           0        3.284000   27.562000    6.382000
     24          6           0        4.021000   27.017000    5.332000
     25          1           0       -1.973000   33.085000    8.159000
     26          1           0       -0.540000   26.054000    8.043000
     27          1           0        0.454000   26.776000    9.311000
     28          1           0       -2.258000   26.125000   10.296000
     29          1           0       -0.409000   24.042000    9.063000
     30          1           0       -2.106000   24.282000    8.736000
     31          1           0       -1.609000   22.271000   10.176000
     32          1           0       -2.684000   23.422000   10.916000
     33          1           0        0.230000   23.014000   11.618000
     34          1           0       -1.152000   22.652000   12.623000
     35          1           0       -0.027000   24.811000   13.272000
     36          1           0       -1.687000   25.018000   12.862000
     37          1           0       -0.474000   26.853000   11.824000
     38          1           0        0.671000   25.729000   11.147000
     39          1           0        5.333000   25.442000    4.694000
     40          1           0        5.393000   24.356000    6.913000
     41          1           0        4.120000   25.321000    8.812000
     42          1           0        2.790000   27.362000    8.473000
     43          1           0        0.088000   32.896000    6.844000
     44          1           0        2.950000   29.456000    5.611000
     45          1           0        4.024000   27.496000    4.370000
 ---------------------------------------------------------------------
                    Distance matrix (angstroms):
                    1          2          3          4          5
     1  C    0.000000
     2  C    4.424548   0.000000
     3  C    3.834501   5.688916   0.000000
     4  C    5.365523   6.726525   1.548870   0.000000
     5  C    6.118988   7.978509   2.482210   1.542737   0.000000
     6  C    7.573108   9.263225   3.876025   2.579715   1.538163
     7  C    7.951107   9.649684   4.375602   3.046045   2.602281
     8  C    7.398640   8.639437   3.918511   2.606298   3.008850
     9  C    5.883954   7.226758   2.528332   1.561760   2.589699
    10  C    4.780714   9.199998   6.415695   7.550816   7.473069
    11  C    5.074411   9.403609   5.975164   6.912898   6.801303
    12  C    4.333036   8.445069   4.877222   5.788147   5.879882
    13  C    2.964406   7.090045   4.152513   5.327059   5.692034
    14  N    1.461017   4.458725   2.398609   3.938921   4.725282
    15  C    2.419676   3.635476   2.200910   3.561186   4.608415
    16  O    3.652541   4.418516   1.449763   2.439517   3.562486
    17  C    2.763995   2.191581   3.583220   4.793398   5.953983
    18  N    4.137364   1.265901   4.597564   5.537734   6.796123
    19  N    3.573853   1.311243   5.722540   6.965916   8.137028
    20  C    2.357764   2.088783   4.575116   5.919584   7.014165
    21  N    1.270243   3.480734   4.644275   6.130709   7.049373
    22  N    1.297494   5.572997   4.689593   6.193498   6.757802
    23  C    2.404750   6.798811   4.750067   6.120603   6.469212
    24  C    3.589594   7.973339   5.885116   7.204092   7.328983
    25  H    5.465483   1.070707   6.658622   7.600654   8.881771
    26  H    3.788861   6.176504   1.096371   2.177134   2.415618
    27  H    3.535879   5.860273   1.098629   2.124758   3.049125
    28  H    5.869537   6.507323   2.190000   1.091079   2.150629
    29  H    5.791343   8.255141   2.590182   2.172379   1.092581
    30  H    6.237092   7.941693   2.805493   2.178758   1.091826
    31  H    8.157181  10.128039   4.631117   3.515668   2.174699
    32  H    8.096893   9.294316   4.293420   2.872735   2.126463
    33  H    7.822005   9.977911   4.546236   3.483070   2.935812
    34  H    9.035288  10.575734   5.421776   4.021765   3.527813
    35  H    7.888938   9.153498   4.694364   3.548541   4.002375
    36  H    7.932904   8.641094   4.346140   2.913062   3.421172
    37  H    5.823634   6.611394   2.857160   2.195364   3.523188
    38  H    5.537388   7.466480   2.660336   2.197280   2.946775
    39  H    5.700865  10.107597   7.398606   8.512419   8.325957
    40  H    6.137878  10.439105   6.716637   7.493770   7.236652
    41  H    5.024292   8.859135   4.882292   5.535899   5.609541
    42  H    2.752096   6.422104   3.488349   4.631554   5.242032
    43  H    4.086609   2.063402   6.657950   7.942988   9.090653
    44  H    1.962528   5.695038   5.641478   7.157487   7.754593
    45  H    3.858271   8.061055   6.573244   7.963670   8.096018
                    6          7          8          9         10
     6  C    0.000000
     7  C    1.535555   0.000000
     8  C    2.549266   1.545427   0.000000
     9  C    2.982704   2.593253   1.542803   0.000000
    10  C    8.585561   8.795279   8.886569   7.805745   0.000000
    11  C    7.756008   7.789508   7.913446   6.965258   1.392560
    12  C    6.848440   6.773768   6.719411   5.707276   2.418222
    13  C    6.866810   6.911926   6.636349   5.388228   2.782629
    14  N    6.188987   6.639098   6.111559   4.606485   5.256180
    15  C    6.023704   6.507891   5.813142   4.312142   6.541084
    16  O    4.905316   5.476920   4.814101   3.420978   7.221712
    17  C    7.318409   7.755429   6.903046   5.417163   7.427481
    18  N    8.050720   8.476513   7.498529   6.114654   8.851313
    19  N    9.506230   9.873568   8.934882   7.442455   8.260899
    20  C    8.421967   8.810946   7.970762   6.446473   7.121349
    21  N    8.497875   8.859615   8.157278   6.615933   5.822915
    22  N    8.178423   8.510027   8.085803   6.628648   3.695725
    23  C    7.783722   8.024181   7.766312   6.431205   2.420958
    24  C    8.602049   8.901549   8.821561   7.573390   1.393126
    25  H   10.116861  10.491037   9.425406   8.067694  10.231053
    26  H    3.940346   4.692045   4.573678   3.346089   5.878652
    27  H    4.287158   4.453496   3.884354   2.414287   5.816361
    28  H    2.931583   3.518922   2.960461   2.177655   8.498875
    29  H    2.123793   2.911733   3.461956   2.945175   6.528465
    30  H    2.170018   3.525335   3.981289   3.525953   7.748119
    31  H    1.090078   2.165061   3.490589   3.977610   8.669571
    32  H    1.087718   2.127969   2.833459   3.380940   9.515380
    33  H    2.154761   1.091499   2.159904   2.922034   8.114893
    34  H    2.171875   1.090727   2.180415   3.524203   9.785444
    35  H    3.483229   2.168684   1.084366   2.193259   9.175782
    36  H    2.854691   2.149528   1.092083   2.143056   9.812051
    37  H    3.961980   3.523639   2.174347   1.091137   8.259994
    38  H    3.424741   2.883890   2.113389   1.092214   6.962484
    39  H    9.403459   9.654535   9.841658   8.809493   1.080910
    40  H    8.027148   7.979145   8.240711   7.458959   2.142022
    41  H    6.381968   6.103531   6.061880   5.216053   3.400202
    42  H    6.402895   6.356891   5.882990   4.561396   3.862332
    43  H   10.476798  10.827068   9.886932   8.384937   8.557594
    44  H    9.183527   9.507978   9.044922   7.573297   4.035001
    45  H    9.429334   9.823974   9.736921   8.442887   2.135501
                   11         12         13         14         15
    11  C    0.000000
    12  C    1.393724   0.000000
    13  C    2.405847   1.392976   0.000000
    14  N    5.263824   4.333486   3.107490   0.000000
    15  C    6.482039   5.462180   4.278200   1.292180   0.000000
    16  O    6.982411   5.906621   4.930207   2.287800   1.343443
    17  C    7.509997   6.519116   5.218365   2.350614   1.450602
    18  N    8.928458   7.902913   6.608957   3.768120   2.708466
    19  N    8.579515   7.721780   6.334620   4.006006   3.550756
    20  C    7.385517   6.514461   5.134142   2.712645   2.409953
    21  N    6.203511   5.470355   4.081488   2.343498   2.759821
    22  N    4.199164   3.723874   2.452434   2.496435   3.644500
    23  C    2.794767   2.430297   1.402126   3.073271   4.347085
    24  C    2.409850   2.790522   2.408583   4.304209   5.591765
    25  H   10.451919   9.490232   8.133538   5.527429   4.665196
    26  H    5.544283   4.637323   3.997457   2.423569   2.583510
    27  H    5.259343   4.042018   3.335675   2.293325   2.451210
    28  H    7.935001   6.811717   6.246565   4.426324   3.748379
    29  H    5.812299   4.974594   4.947460   4.514076   4.700408
    30  H    7.239376   6.434556   6.156959   4.843128   4.664115
    31  H    7.838784   7.089393   7.261584   6.818018   6.780689
    32  H    8.743402   7.803780   7.706108   6.662047   6.299411
    33  H    7.023267   6.070756   6.397224   6.612754   6.688046
    34  H    8.738178   7.756917   7.962555   7.714532   7.532971
    35  H    8.108195   6.885580   6.898054   6.704809   6.467268
    36  H    8.899582   7.692075   7.497542   6.595556   6.095859
    37  H    7.477994   6.150202   5.659542   4.626084   4.142962
    38  H    6.034956   4.756204   4.569456   4.399556   4.400148
    39  H    2.151244   3.398337   3.863410   6.231620   7.519009
    40  H    1.079404   2.147220   3.385661   6.246937   7.432120
    41  H    2.154656   1.082108   2.150725   4.805403   5.787942
    42  H    3.379475   2.136216   1.079766   2.630390   3.612694
    43  H    8.985326   8.215714   6.826238   4.777905   4.484638
    44  H    4.742833   4.438515   3.251301   3.354160   4.378665
    45  H    3.379205   3.864914   3.386716   4.770276   6.016394
                   16         17         18         19         20
    16  O    0.000000
    17  C    2.440682   0.000000
    18  N    3.257394   1.434634   0.000000
    19  N    4.642198   2.201574   2.129997   0.000000
    20  C    3.640958   1.339404   2.139580   1.299752   0.000000
    21  N    4.102861   2.391093   3.516628   2.439895   1.424205
    22  N    4.782399   4.053239   5.401728   4.573636   3.484819
    23  C    5.245412   5.078747   6.484871   5.877490   4.726579
    24  C    6.449045   6.316878   7.717552   6.980874   5.885104
    25  H    5.342231   3.236782   2.086771   2.088516   3.111496
    26  H    2.073644   4.016388   5.140983   6.088727   4.876949
    27  H    2.184984   3.767990   4.890921   5.735863   4.554557
    28  H    2.443683   4.777769   5.261706   6.943455   6.027610
    29  H    3.903829   6.127418   7.146961   8.241185   7.036615
    30  H    3.598197   5.961970   6.753838   8.136257   7.041051
    31  H    5.721411   8.126540   8.926635  10.311003   9.183256
    32  H    5.059340   7.486002   8.045866   9.679478   8.680468
    33  H    5.815286   7.997167   8.858251  10.064503   8.939053
    34  H    6.451755   8.743876   9.386577  10.862614   9.832655
    35  H    5.591731   7.491918   8.076805   9.413684   8.481281
    36  H    4.976445   7.063979   7.466535   9.091563   8.224505
    37  H    3.344613   5.013260   5.541479   6.914612   6.044125
    38  H    3.781781   5.568533   6.446756   7.497733   6.427472
    39  H    8.200647   8.380301   9.799086   9.127431   8.021430
    40  H    7.829032   8.514140   9.927099   9.638699   8.438466
    41  H    6.044655   6.906600   8.232171   8.246060   7.045012
    42  H    4.211983   4.545892   5.875468   5.789897   4.603461
    43  H    5.631140   3.195410   3.098173   1.022400   2.105842
    44  H    5.604347   4.511137   5.743735   4.548386   3.667204
    45  H    6.971358   6.578828   7.928720   6.990638   5.996226
                   21         22         23         24         25
    21  N    0.000000
    22  N    2.134046   0.000000
    23  C    3.456028   1.404645   0.000000
    24  C    4.543903   2.414176   1.393806   0.000000
    25  H    4.457889   6.577729   7.829260   8.985577   0.000000
    26  H    4.748966   4.477930   4.433504   5.392551   7.176483
    27  H    4.421531   4.243996   4.147980   5.349207   6.857180
    28  H    6.471389   6.835825   6.935281   8.053745   7.286261
    29  H    6.850443   6.239752   5.763368   6.511212   9.221668
    30  H    7.127835   6.912568   6.734376   7.523800   8.822892
    31  H    9.157844   8.650334   8.144358   8.813952  11.006515
    32  H    8.920332   8.822717   8.562347   9.437272  10.073735
    33  H    8.817672   8.224975   7.578055   8.361189  10.873957
    34  H    9.926341   9.599351   9.095948   9.948459  11.377558
    35  H    8.625466   8.509631   8.124212   9.181304   9.919111
    36  H    8.584922   8.740328   8.554132   9.658062   9.342189
    37  H    6.372061   6.677299   6.651361   7.897973   7.383566
    38  H    6.374970   6.105904   5.735232   6.833423   8.368370
    39  H    6.690369   4.559420   3.397373   2.146861  11.126514
    40  H    7.275200   5.278415   3.874052   3.385685  11.489383
    41  H    6.138824   4.599938   3.409674   3.872547   9.890943
    42  H    3.772622   2.698523   2.157850   3.391204   7.452348
    43  H    2.836760   4.881784   6.235336   7.233068   2.452074
    44  H    2.245567   1.010282   2.072012   2.678358   6.625547
    45  H    4.619994   2.635715   2.144784   1.074660   9.030916
                   26         27         28         29         30
    26  H    0.000000
    27  H    1.765544   0.000000
    28  H    2.834180   2.957866   0.000000
    29  H    2.259581   2.877678   3.045978   0.000000
    30  H    2.464262   3.619981   2.419370   1.744803   0.000000
    31  H    4.472532   5.029833   3.910104   2.411475   2.522842
    32  H    4.447279   4.865428   2.805724   2.998939   2.413728
    33  H    4.755536   4.418718   4.197160   2.827212   3.920541
    34  H    5.737992   5.527744   4.324337   3.893295   4.321549
    35  H    5.399135   4.447708   3.944684   4.295692   5.017706
    36  H    5.060797   4.503781   2.852340   4.125320   4.212022
    37  H    3.865064   2.679978   2.459151   3.940694   4.336958
    38  H    3.347680   2.124663   3.075721   2.890575   3.952020
    39  H    6.788407   6.848422   9.458973   7.349743   8.545296
    40  H    6.273802   6.000044   8.550547   6.195506   7.717759
    41  H    4.779566   3.975623   6.597542   4.712821   6.312557
    42  H    3.603424   2.550007   5.507795   4.648021   5.790197
    43  H    6.974593   6.608664   7.954022   9.141350   9.088140
    44  H    5.446864   5.205998   7.756807   7.246418   7.880294
    45  H    6.033273   6.138141   8.744178   7.321602   8.183438
                   31         32         33         34         35
    31  H    0.000000
    32  H    1.740122   0.000000
    33  H    2.452210   3.025006   0.000000
    34  H    2.518297   2.419457   1.746709   0.000000
    35  H    4.305757   3.813097   2.455804   2.519545   0.000000
    36  H    3.842745   2.707054   3.039480   2.437479   1.722367
    37  H    4.999885   4.180948   3.908449   4.329721   2.542888
    38  H    4.254293   4.078190   2.790618   3.869087   2.417758
    39  H    9.396751  10.347269   8.937425  10.616420  10.134587
    40  H    8.001400   9.062797   7.112985   8.851256   8.367814
    41  H    6.632076   7.370715   5.322404   7.031448   6.111408
    42  H    6.940439   7.173320   5.945564   7.412554   6.121560
    43  H   11.263776  10.678101  10.975662  11.826833  10.329551
    44  H    9.656497   9.812958   9.218558  10.596649   9.440841
    45  H    9.630210  10.219827   9.328251  10.879675  10.142260
                   36         37         38         39         40
    36  H    0.000000
    37  H    2.432291   0.000000
    38  H    3.001151   1.741474   0.000000
    39  H   10.778516   9.303175   7.966042   0.000000
    40  H    9.271205   8.048268   6.489158   2.471226   0.000000
    41  H    7.086294   5.702982   4.185008   4.294640   2.481523
    42  H    6.693369   4.705526   3.782476   4.943085   4.271445
    43  H   10.071238   7.850738   8.379832   9.364542  10.053824
    44  H    9.683729   7.556504   7.052068   4.757286   5.802883
    45  H   10.529486   8.729695   7.764833   2.457107   4.266217
                   41         42         43         44         45
    41  H    0.000000
    42  H    2.459574   0.000000
    43  H    8.804015   6.370212   0.000000
    44  H    5.358500   3.549856   4.641652   0.000000
    45  H    4.946838   4.286644   7.125502   2.556395   0.000000
 Stoichiometry    C18H21N5O
 Framework group  C1[X(C18H21N5O)]
 Deg. of freedom   129
 Full point group                 C1      NOp   1
 Largest Abelian subgroup         C1      NOp   1
 Largest concise Abelian subgroup C1      NOp   1
                         Standard orientation:                         
 ---------------------------------------------------------------------
 Center     Atomic      Atomic             Coordinates (Angstroms)
 Number     Number       Type             X           Y           Z
 ---------------------------------------------------------------------
      1          6           0       -2.345124    0.182256   -0.162036
      2          6           0       -3.070547   -4.154350    0.332162
      3          6           0        1.373710   -0.696929   -0.479370
      4          6           0        2.869800   -1.068854   -0.329757
      5          6           0        3.650477   -0.188122   -1.327199
      6          6           0        5.166157   -0.153706   -1.067441
      7          6           0        5.586718    0.107723    0.386076
      8          6           0        4.824786   -0.804844    1.373510
      9          6           0        3.297994   -0.839001    1.154464
     10          6           0       -1.732821    4.916248   -0.425935
     11          6           0       -0.549733    4.905054    0.308502
     12          6           0       -0.110260    3.732912    0.921214
     13          6           0       -0.860518    2.567270    0.784195
     14          7           0       -0.989251   -0.287059   -0.437577
     15          6           0       -0.659694   -1.536186   -0.409250
     16          8           0        0.605009   -1.912522   -0.661707
     17          6           0       -1.698412   -2.504575   -0.113386
     18          7           0       -1.862291   -3.922142    0.034333
     19          7           0       -3.769316   -3.046920    0.400566
     20          6           0       -2.944722   -2.079096    0.130906
     21          7           0       -3.233065   -0.684550    0.109487
     22          7           0       -2.809774    1.393287   -0.130460
     23          6           0       -2.045423    2.560142    0.034592
     24          6           0       -2.482362    3.748352   -0.548449
     25          1           0       -3.510027   -5.117160    0.494238
     26          1           0        1.238167   -0.068284   -1.367325
     27          1           0        1.137011   -0.075715    0.395303
     28          1           0        3.039329   -2.114401   -0.591568
     29          1           0        3.302095    0.845343   -1.261529
     30          1           0        3.453764   -0.507885   -2.352450
     31          1           0        5.650955    0.563972   -1.729391
     32          1           0        5.556694   -1.130398   -1.344359
     33          1           0        5.375765    1.149062    0.636042
     34          1           0        6.663508   -0.023243    0.500348
     35          1           0        5.083372   -0.541526    2.393140
     36          1           0        5.199520   -1.822930    1.248123
     37          1           0        2.842873   -1.589373    1.802837
     38          1           0        2.932386    0.125558    1.513475
     39          1           0       -2.084135    5.831573   -0.881045
     40          1           0        0.013971    5.818219    0.424607
     41          1           0        0.801188    3.727252    1.504470
     42          1           0       -0.514318    1.663191    1.262400
     43          1           0       -4.777333   -3.019308    0.569209
     44          1           0       -3.812120    1.480019   -0.038535
     45          1           0       -3.407023    3.772125   -1.095561
 ---------------------------------------------------------------------
 Rotational constants (GHZ):           0.2279696           0.1762797           0.1058544
 Leave Link  202 at Thu Jan 30 14:39:46 2025, MaxMem=   104857600 cpu:               0.0 elap:               0.0
 (Enter /home/pb777/GAUSSIAN/g16/l301.exe)
 Standard basis: 6-31G(d) (6D, 7F)
 Ernie: Thresh=  0.10000D-02 Tol=  0.10000D-05 Strict=F.
 There are   402 symmetry adapted cartesian basis functions of A   symmetry.
 There are   402 symmetry adapted basis functions of A   symmetry.
   402 basis functions,   756 primitive gaussians,   402 cartesian basis functions
    86 alpha electrons       86 beta electrons
       nuclear repulsion energy      1976.7386396192 Hartrees.
 IExCor=    0 DFT=F Ex=HF Corr=None ExCW=0 ScaHFX=  1.000000
 ScaDFX=  1.000000  1.000000  1.000000  1.000000 ScalE2=  1.000000  1.000000
 IRadAn=      5 IRanWt=     -1 IRanGd=            0 ICorTp=0 IEmpDi=  4
 NAtoms=   45 NActive=   45 NUniq=   45 SFac= 1.00D+00 NAtFMM=   60 NAOKFM=F Big=F
 Integral buffers will be    131072 words long.
 Raffenetti 1 integral format.
 Two-electron integral symmetry is turned on.
 Leave Link  301 at Thu Jan 30 14:39:46 2025, MaxMem=   104857600 cpu:               0.0 elap:               0.0
 (Enter /home/pb777/GAUSSIAN/g16/l302.exe)
 NPDir=0 NMtPBC=     1 NCelOv=     1 NCel=       1 NClECP=     1 NCelD=      1
         NCelK=      1 NCelE2=     1 NClLst=     1 CellRange=     0.0.
 One-electron integrals computed using PRISM.
 One-electron integral symmetry used in STVInt
 NBasis=   402 RedAO= T EigKep=  4.43D-04  NBF=   402
 NBsUse=   402 1.00D-06 EigRej= -1.00D+00 NBFU=   402
 Leave Link  302 at Thu Jan 30 14:39:47 2025, MaxMem=   104857600 cpu:               0.2 elap:               0.2
 (Enter /home/pb777/GAUSSIAN/g16/l303.exe)
 DipDrv:  MaxL=1.
 Leave Link  303 at Thu Jan 30 14:39:47 2025, MaxMem=   104857600 cpu:               0.0 elap:               0.0
 (Enter /home/pb777/GAUSSIAN/g16/l401.exe)
 ExpMin= 1.61D-01 ExpMax= 5.48D+03 ExpMxC= 8.25D+02 IAcc=3 IRadAn=         5 AccDes= 0.00D+00
 Harris functional with IExCor=  205 and IRadAn=       5 diagonalized for initial guess.
 HarFok:  IExCor=  205 AccDes= 0.00D+00 IRadAn=         5 IDoV= 1 UseB2=F ITyADJ=14
 ICtDFT=  3500011 ScaDFX=  1.000000  1.000000  1.000000  1.000000
 FoFCou: FMM=F IPFlag=           0 FMFlag=      100000 FMFlg1=           0
         NFxFlg=           0 DoJE=T BraDBF=F KetDBF=T FulRan=T
         wScrn=  0.000000 ICntrl=       500 IOpCl=  0 I1Cent=   200000004 NGrid=           0
         NMat0=    1 NMatS0=      1 NMatT0=    0 NMatD0=    1 NMtDS0=    0 NMtDT0=    0
 Petite list used in FoFCou.
 Harris En= -1042.30113462615    
 JPrj=0 DoOrth=F DoCkMO=F.
 Leave Link  401 at Thu Jan 30 14:39:54 2025, MaxMem=   104857600 cpu:               6.9 elap:               6.9
 (Enter /home/pb777/GAUSSIAN/g16/l502.exe)
 Integral symmetry usage will be decided dynamically.
 Closed shell SCF:
 Using DIIS extrapolation, IDIIS=  1040.
 NGot=   104857600 LenX=   104527461 LenY=   104365416
 Requested convergence on RMS density matrix=1.00D-08 within 128 cycles.
 Requested convergence on MAX density matrix=1.00D-06.
 Requested convergence on             energy=1.00D-06.
 No special actions if energy rises.
 Fock matrices will be formed incrementally for  20 cycles.
 Integral accuracy reduced to 1.0D-05 until final iterations.

 Cycle   1  Pass 0  IDiag  1:
 FoFJK:  IHMeth= 1 ICntrl=       0 DoSepK=F KAlg= 0 I1Cent=           0 FoldK=F
 IRaf= 700000000 NMat=       1 IRICut=       1 DoRegI=T DoRafI=F ISym2E= 0 IDoP0=0 IntGTp=1.
 FoFCou: FMM=F IPFlag=           0 FMFlag=      100000 FMFlg1=           0
         NFxFlg=           0 DoJE=F BraDBF=F KetDBF=F FulRan=T
         wScrn=  0.000000 ICntrl=         0 IOpCl=  0 I1Cent=           0 NGrid=           0
         NMat0=    1 NMatS0=      1 NMatT0=    0 NMatD0=    1 NMtDS0=    0 NMtDT0=    0
 Symmetry not used in FoFCou.
 E= -1039.97424076176    
 DIIS: error= 5.40D-02 at cycle   1 NSaved=   1.
 NSaved= 1 IEnMin= 1 EnMin= -1039.97424076176     IErMin= 1 ErrMin= 5.40D-02
 ErrMax= 5.40D-02  0.00D+00 EMaxC= 1.00D-01 BMatC= 1.54D+00 BMatP= 1.54D+00
 IDIUse=3 WtCom= 4.60D-01 WtEn= 5.40D-01
 Coeff-Com:  0.100D+01
 Coeff-En:   0.100D+01
 Coeff:      0.100D+01
 Gap=     0.489 Goal=   None    Shift=    0.000
 GapD=    0.489 DampG=2.000 DampE=0.500 DampFc=1.0000 IDamp=-1.
 RMSDP=3.77D-03 MaxDP=1.37D-01              OVMax= 1.42D-01

 Cycle   2  Pass 0  IDiag  1:
 RMSU=  3.66D-03    CP:  9.44D-01
 E= -1040.77106165558     Delta-E=       -0.796820893816 Rises=F Damp=F
 DIIS: error= 1.47D-02 at cycle   2 NSaved=   2.
 NSaved= 2 IEnMin= 2 EnMin= -1040.77106165558     IErMin= 2 ErrMin= 1.47D-02
 ErrMax= 1.47D-02  0.00D+00 EMaxC= 1.00D-01 BMatC= 1.49D-01 BMatP= 1.54D+00
 IDIUse=3 WtCom= 8.53D-01 WtEn= 1.47D-01
 Coeff-Com:  0.148D+00 0.852D+00
 Coeff-En:   0.000D+00 0.100D+01
 Coeff:      0.126D+00 0.874D+00
 Gap=     0.451 Goal=   None    Shift=    0.000
 RMSDP=1.32D-03 MaxDP=3.38D-02 DE=-7.97D-01 OVMax= 5.43D-02

 Cycle   3  Pass 0  IDiag  1:
 RMSU=  1.14D-03    CP:  9.53D-01  8.25D-01
 E= -1040.88971605794     Delta-E=       -0.118654402357 Rises=F Damp=F
 DIIS: error= 4.83D-03 at cycle   3 NSaved=   3.
 NSaved= 3 IEnMin= 3 EnMin= -1040.88971605794     IErMin= 3 ErrMin= 4.83D-03
 ErrMax= 4.83D-03  0.00D+00 EMaxC= 1.00D-01 BMatC= 1.72D-02 BMatP= 1.49D-01
 IDIUse=3 WtCom= 9.52D-01 WtEn= 4.83D-02
 Coeff-Com: -0.221D-01 0.219D+00 0.803D+00
 Coeff-En:   0.000D+00 0.000D+00 0.100D+01
 Coeff:     -0.211D-01 0.209D+00 0.812D+00
 Gap=     0.422 Goal=   None    Shift=    0.000
 RMSDP=3.48D-04 MaxDP=1.60D-02 DE=-1.19D-01 OVMax= 2.39D-02

 Cycle   4  Pass 0  IDiag  1:
 RMSU=  2.12D-04    CP:  9.50D-01  8.87D-01  8.67D-01
 E= -1040.90611003701     Delta-E=       -0.016393979071 Rises=F Damp=F
 DIIS: error= 8.86D-04 at cycle   4 NSaved=   4.
 NSaved= 4 IEnMin= 4 EnMin= -1040.90611003701     IErMin= 4 ErrMin= 8.86D-04
 ErrMax= 8.86D-04  0.00D+00 EMaxC= 1.00D-01 BMatC= 6.94D-04 BMatP= 1.72D-02
 IDIUse=3 WtCom= 9.91D-01 WtEn= 8.86D-03
 Coeff-Com: -0.821D-02 0.321D-01 0.206D+00 0.770D+00
 Coeff-En:   0.000D+00 0.000D+00 0.000D+00 0.100D+01
 Coeff:     -0.814D-02 0.318D-01 0.204D+00 0.772D+00
 Gap=     0.417 Goal=   None    Shift=    0.000
 RMSDP=8.76D-05 MaxDP=3.25D-03 DE=-1.64D-02 OVMax= 6.58D-03

 Cycle   5  Pass 0  IDiag  1:
 RMSU=  6.64D-05    CP:  9.50D-01  8.87D-01  9.13D-01  8.94D-01
 E= -1040.90684648648     Delta-E=       -0.000736449476 Rises=F Damp=F
 DIIS: error= 3.89D-04 at cycle   5 NSaved=   5.
 NSaved= 5 IEnMin= 5 EnMin= -1040.90684648648     IErMin= 5 ErrMin= 3.89D-04
 ErrMax= 3.89D-04  0.00D+00 EMaxC= 1.00D-01 BMatC= 6.18D-05 BMatP= 6.94D-04
 IDIUse=3 WtCom= 9.96D-01 WtEn= 3.89D-03
 Coeff-Com:  0.120D-02-0.181D-01-0.569D-01 0.831D-01 0.991D+00
 Coeff-En:   0.000D+00 0.000D+00 0.000D+00 0.000D+00 0.100D+01
 Coeff:      0.119D-02-0.180D-01-0.567D-01 0.828D-01 0.991D+00
 Gap=     0.418 Goal=   None    Shift=    0.000
 RMSDP=3.82D-05 MaxDP=1.92D-03 DE=-7.36D-04 OVMax= 3.41D-03

 Cycle   6  Pass 0  IDiag  1:
 RMSU=  2.38D-05    CP:  9.50D-01  8.89D-01  9.27D-01  1.01D+00  1.09D+00
 E= -1040.90697223414     Delta-E=       -0.000125747660 Rises=F Damp=F
 DIIS: error= 1.43D-04 at cycle   6 NSaved=   6.
 NSaved= 6 IEnMin= 6 EnMin= -1040.90697223414     IErMin= 6 ErrMin= 1.43D-04
 ErrMax= 1.43D-04  0.00D+00 EMaxC= 1.00D-01 BMatC= 1.15D-05 BMatP= 6.18D-05
 IDIUse=3 WtCom= 9.99D-01 WtEn= 1.43D-03
 Coeff-Com:  0.114D-02-0.787D-02-0.358D-01-0.823D-01 0.232D+00 0.893D+00
 Coeff-En:   0.000D+00 0.000D+00 0.000D+00 0.000D+00 0.000D+00 0.100D+01
 Coeff:      0.114D-02-0.786D-02-0.358D-01-0.822D-01 0.231D+00 0.893D+00
 Gap=     0.418 Goal=   None    Shift=    0.000
 RMSDP=1.52D-05 MaxDP=6.12D-04 DE=-1.26D-04 OVMax= 1.25D-03

 Cycle   7  Pass 0  IDiag  1:
 RMSU=  8.25D-06    CP:  9.50D-01  8.89D-01  9.31D-01  1.03D+00  1.25D+00
                    CP:  1.05D+00
 E= -1040.90699516277     Delta-E=       -0.000022928624 Rises=F Damp=F
 DIIS: error= 5.37D-05 at cycle   7 NSaved=   7.
 NSaved= 7 IEnMin= 7 EnMin= -1040.90699516277     IErMin= 7 ErrMin= 5.37D-05
 ErrMax= 5.37D-05  0.00D+00 EMaxC= 1.00D-01 BMatC= 1.39D-06 BMatP= 1.15D-05
 IDIUse=1 WtCom= 1.00D+00 WtEn= 0.00D+00
 Coeff-Com: -0.367D-04 0.160D-02 0.429D-02-0.251D-01-0.968D-01 0.691D-01
 Coeff-Com:  0.105D+01
 Coeff:     -0.367D-04 0.160D-02 0.429D-02-0.251D-01-0.968D-01 0.691D-01
 Coeff:      0.105D+01
 Gap=     0.418 Goal=   None    Shift=    0.000
 RMSDP=6.57D-06 MaxDP=2.99D-04 DE=-2.29D-05 OVMax= 6.67D-04

 Initial convergence to 1.0D-05 achieved.  Increase integral accuracy.
 Cycle   8  Pass 1  IDiag  1:
 E= -1040.90700304535     Delta-E=       -0.000007882587 Rises=F Damp=F
 DIIS: error= 8.05D-05 at cycle   1 NSaved=   1.
 NSaved= 1 IEnMin= 1 EnMin= -1040.90700304535     IErMin= 1 ErrMin= 8.05D-05
 ErrMax= 8.05D-05  0.00D+00 EMaxC= 1.00D-01 BMatC= 1.14D-06 BMatP= 1.14D-06
 IDIUse=1 WtCom= 1.00D+00 WtEn= 0.00D+00
 Coeff-Com:  0.100D+01
 Coeff:      0.100D+01
 Gap=     0.418 Goal=   None    Shift=    0.000
 RMSDP=6.57D-06 MaxDP=2.99D-04 DE=-7.88D-06 OVMax= 2.73D-04

 Cycle   9  Pass 1  IDiag  1:
 RMSU=  2.42D-05    CP:  1.00D+00
 E= -1040.90700433930     Delta-E=       -0.000001293947 Rises=F Damp=F
 DIIS: error= 1.70D-05 at cycle   2 NSaved=   2.
 NSaved= 2 IEnMin= 2 EnMin= -1040.90700433930     IErMin= 2 ErrMin= 1.70D-05
 ErrMax= 1.70D-05  0.00D+00 EMaxC= 1.00D-01 BMatC= 1.04D-07 BMatP= 1.14D-06
 IDIUse=1 WtCom= 1.00D+00 WtEn= 0.00D+00
 Coeff-Com:  0.278D-01 0.972D+00
 Coeff:      0.278D-01 0.972D+00
 Gap=     0.418 Goal=   None    Shift=    0.000
 RMSDP=1.75D-06 MaxDP=8.68D-05 DE=-1.29D-06 OVMax= 1.83D-04

 Cycle  10  Pass 1  IDiag  1:
 RMSU=  1.37D-06    CP:  1.00D+00  1.05D+00
 E= -1040.90700457894     Delta-E=       -0.000000239639 Rises=F Damp=F
 DIIS: error= 1.30D-05 at cycle   3 NSaved=   3.
 NSaved= 3 IEnMin= 3 EnMin= -1040.90700457894     IErMin= 3 ErrMin= 1.30D-05
 ErrMax= 1.30D-05  0.00D+00 EMaxC= 1.00D-01 BMatC= 4.82D-08 BMatP= 1.04D-07
 IDIUse=1 WtCom= 1.00D+00 WtEn= 0.00D+00
 Coeff-Com: -0.594D-01 0.312D+00 0.748D+00
 Coeff:     -0.594D-01 0.312D+00 0.748D+00
 Gap=     0.418 Goal=   None    Shift=    0.000
 RMSDP=8.06D-07 MaxDP=4.58D-05 DE=-2.40D-07 OVMax= 1.02D-04

 Cycle  11  Pass 1  IDiag  1:
 RMSU=  7.48D-07    CP:  1.00D+00  1.05D+00  1.15D+00
 E= -1040.90700468023     Delta-E=       -0.000000101286 Rises=F Damp=F
 DIIS: error= 8.12D-06 at cycle   4 NSaved=   4.
 NSaved= 4 IEnMin= 4 EnMin= -1040.90700468023     IErMin= 4 ErrMin= 8.12D-06
 ErrMax= 8.12D-06  0.00D+00 EMaxC= 1.00D-01 BMatC= 1.15D-08 BMatP= 4.82D-08
 IDIUse=1 WtCom= 1.00D+00 WtEn= 0.00D+00
 Coeff-Com:  0.180D-01-0.519D+00-0.359D+00 0.186D+01
 Coeff:      0.180D-01-0.519D+00-0.359D+00 0.186D+01
 Gap=     0.418 Goal=   None    Shift=    0.000
 RMSDP=1.17D-06 MaxDP=6.40D-05 DE=-1.01D-07 OVMax= 1.76D-04

 Cycle  12  Pass 1  IDiag  1:
 RMSU=  2.95D-07    CP:  1.00D+00  1.06D+00  1.80D+00  1.92D+00
 E= -1040.90700475314     Delta-E=       -0.000000072910 Rises=F Damp=F
 DIIS: error= 1.65D-06 at cycle   5 NSaved=   5.
 NSaved= 5 IEnMin= 5 EnMin= -1040.90700475314     IErMin= 5 ErrMin= 1.65D-06
 ErrMax= 1.65D-06  0.00D+00 EMaxC= 1.00D-01 BMatC= 8.51D-10 BMatP= 1.15D-08
 IDIUse=1 WtCom= 1.00D+00 WtEn= 0.00D+00
 Coeff-Com:  0.864D-02-0.157D+00-0.158D+00 0.474D+00 0.834D+00
 Coeff:      0.864D-02-0.157D+00-0.158D+00 0.474D+00 0.834D+00
 Gap=     0.418 Goal=   None    Shift=    0.000
 RMSDP=1.93D-07 MaxDP=8.11D-06 DE=-7.29D-08 OVMax= 3.00D-05

 Cycle  13  Pass 1  IDiag  1:
 RMSU=  8.37D-08    CP:  1.00D+00  1.06D+00  1.88D+00  2.09D+00  1.16D+00
 E= -1040.90700475585     Delta-E=       -0.000000002712 Rises=F Damp=F
 DIIS: error= 4.92D-07 at cycle   6 NSaved=   6.
 NSaved= 6 IEnMin= 6 EnMin= -1040.90700475585     IErMin= 6 ErrMin= 4.92D-07
 ErrMax= 4.92D-07  0.00D+00 EMaxC= 1.00D-01 BMatC= 1.46D-10 BMatP= 8.51D-10
 IDIUse=1 WtCom= 1.00D+00 WtEn= 0.00D+00
 Coeff-Com: -0.544D-02 0.146D+00 0.999D-01-0.488D+00-0.782D-01 0.133D+01
 Coeff:     -0.544D-02 0.146D+00 0.999D-01-0.488D+00-0.782D-01 0.133D+01
 Gap=     0.418 Goal=   None    Shift=    0.000
 RMSDP=9.64D-08 MaxDP=3.04D-06 DE=-2.71D-09 OVMax= 1.41D-05

 Cycle  14  Pass 1  IDiag  1:
 RMSU=  5.10D-08    CP:  1.00D+00  1.06D+00  1.90D+00  2.13D+00  1.37D+00
                    CP:  1.42D+00
 E= -1040.90700475644     Delta-E=       -0.000000000588 Rises=F Damp=F
 DIIS: error= 2.60D-07 at cycle   7 NSaved=   7.
 NSaved= 7 IEnMin= 7 EnMin= -1040.90700475644     IErMin= 7 ErrMin= 2.60D-07
 ErrMax= 2.60D-07  0.00D+00 EMaxC= 1.00D-01 BMatC= 1.41D-11 BMatP= 1.46D-10
 IDIUse=1 WtCom= 1.00D+00 WtEn= 0.00D+00
 Coeff-Com: -0.170D-02 0.363D-01 0.287D-01-0.113D+00-0.927D-01 0.128D+00
 Coeff-Com:  0.101D+01
 Coeff:     -0.170D-02 0.363D-01 0.287D-01-0.113D+00-0.927D-01 0.128D+00
 Coeff:      0.101D+01
 Gap=     0.418 Goal=   None    Shift=    0.000
 RMSDP=2.68D-08 MaxDP=1.17D-06 DE=-5.88D-10 OVMax= 3.30D-06

 Cycle  15  Pass 1  IDiag  1:
 RMSU=  1.17D-08    CP:  1.00D+00  1.06D+00  1.91D+00  2.14D+00  1.40D+00
                    CP:  1.58D+00  1.31D+00
 E= -1040.90700475650     Delta-E=       -0.000000000060 Rises=F Damp=F
 DIIS: error= 6.67D-08 at cycle   8 NSaved=   8.
 NSaved= 8 IEnMin= 8 EnMin= -1040.90700475650     IErMin= 8 ErrMin= 6.67D-08
 ErrMax= 6.67D-08  0.00D+00 EMaxC= 1.00D-01 BMatC= 2.56D-12 BMatP= 1.41D-11
 IDIUse=1 WtCom= 1.00D+00 WtEn= 0.00D+00
 Coeff-Com:  0.660D-03-0.186D-01-0.130D-01 0.628D-01 0.804D-02-0.213D+00
 Coeff-Com:  0.112D+00 0.106D+01
 Coeff:      0.660D-03-0.186D-01-0.130D-01 0.628D-01 0.804D-02-0.213D+00
 Coeff:      0.112D+00 0.106D+01
 Gap=     0.418 Goal=   None    Shift=    0.000
 RMSDP=1.19D-08 MaxDP=4.02D-07 DE=-5.96D-11 OVMax= 1.50D-06

 Cycle  16  Pass 1  IDiag  1:
 RMSU=  5.42D-09    CP:  1.00D+00  1.06D+00  1.91D+00  2.15D+00  1.40D+00
                    CP:  1.62D+00  1.48D+00  1.21D+00
 E= -1040.90700475650     Delta-E=       -0.000000000002 Rises=F Damp=F
 DIIS: error= 4.51D-08 at cycle   9 NSaved=   9.
 NSaved= 9 IEnMin= 9 EnMin= -1040.90700475650     IErMin= 9 ErrMin= 4.51D-08
 ErrMax= 4.51D-08  0.00D+00 EMaxC= 1.00D-01 BMatC= 3.19D-13 BMatP= 2.56D-12
 IDIUse=1 WtCom= 1.00D+00 WtEn= 0.00D+00
 Coeff-Com:  0.195D-03-0.426D-02-0.338D-02 0.135D-01 0.127D-01-0.213D-01
 Coeff-Com: -0.105D+00 0.543D-01 0.105D+01
 Coeff:      0.195D-03-0.426D-02-0.338D-02 0.135D-01 0.127D-01-0.213D-01
 Coeff:     -0.105D+00 0.543D-01 0.105D+01
 Gap=     0.418 Goal=   None    Shift=    0.000
 RMSDP=3.30D-09 MaxDP=1.18D-07 DE=-2.27D-12 OVMax= 5.10D-07

 SCF Done:  E(RHF) =  -1040.90700476     A.U. after   16 cycles
            NFock= 16  Conv=0.33D-08     -V/T= 2.0014
 KE= 1.039482671272D+03 PE=-6.384577806239D+03 EE= 2.327449490591D+03
 Leave Link  502 at Thu Jan 30 14:41:23 2025, MaxMem=   104857600 cpu:              88.8 elap:              89.2
 (Enter /home/pb777/GAUSSIAN/g16/l801.exe)
 Range of M.O.s used for correlation:     1   402
 NBasis=   402 NAE=    86 NBE=    86 NFC=     0 NFV=     0
 NROrb=    402 NOA=    86 NOB=    86 NVA=   316 NVB=   316
 Leave Link  801 at Thu Jan 30 14:41:23 2025, MaxMem=   104857600 cpu:               0.0 elap:               0.0
 (Enter /home/pb777/GAUSSIAN/g16/l1101.exe)
 Using compressed storage, NAtomX=    45.
 Will process     46 centers per pass.
 Leave Link 1101 at Thu Jan 30 14:41:23 2025, MaxMem=   104857600 cpu:               0.3 elap:               0.3
 (Enter /home/pb777/GAUSSIAN/g16/l1102.exe)
 Symmetrizing basis deriv contribution to polar:
 IMax=3 JMax=2 DiffMx= 0.00D+00
 Leave Link 1102 at Thu Jan 30 14:41:23 2025, MaxMem=   104857600 cpu:               0.0 elap:               0.0
 (Enter /home/pb777/GAUSSIAN/g16/l1110.exe)
 Forming Gx(P) for the SCF density, NAtomX=    45.
 Integral derivatives from FoFJK, PRISM(SPDF).
 Do as many integral derivatives as possible in FoFJK.
 G2DrvN: MDV=     104854224.
 G2DrvN: will do    46 centers at a time, making    1 passes.
 Calling FoFCou, ICntrl=  3107 FMM=F I1Cent=   0 AccDes= 0.00D+00.
 FoFJK:  IHMeth= 1 ICntrl=    3107 DoSepK=F KAlg= 0 I1Cent=           0 FoldK=F
 IRaf=         0 NMat=       1 IRICut=       1 DoRegI=T DoRafI=F ISym2E= 0 IDoP0=0 IntGTp=1.
 FoFCou: FMM=F IPFlag=           0 FMFlag=      100000 FMFlg1=           0
         NFxFlg=           0 DoJE=F BraDBF=F KetDBF=F FulRan=T
         wScrn=  0.000000 ICntrl=      3107 IOpCl=  0 I1Cent=           0 NGrid=           0
         NMat0=    1 NMatS0=      1 NMatT0=    0 NMatD0=    1 NMtDS0=    0 NMtDT0=    0
 Symmetry not used in FoFCou.
 End of G2Drv F.D. properties file   721 does not exist.
 End of G2Drv F.D. properties file   722 does not exist.
 End of G2Drv F.D. properties file   788 does not exist.
 Leave Link 1110 at Thu Jan 30 14:42:43 2025, MaxMem=   104857600 cpu:              79.5 elap:              79.8
 (Enter /home/pb777/GAUSSIAN/g16/l1002.exe)
 Minotr:  Closed shell wavefunction.
          IDoAtm=111111111111111111111111111111111111111111111
          Direct CPHF calculation.
          Differentiating once with respect to nuclear coordinates.
          Requested convergence is 1.0D-08 RMS, and 1.0D-07 maximum.
          Secondary convergence is 1.0D-12 RMS, and 1.0D-12 maximum.
          NewPWx=T KeepS1=F KeepF1=F KeepIn=T MapXYZ=F SortEE=F KeepMc=T.
 Two-electron integrals replicated using symmetry.
          MDV=     104857600 using IRadAn=       1.
          Solving linear equations simultaneously, MaxMat=     384.
 FoF2E skips out because all densities are zero.
 FoFJK:  IHMeth= 1 ICntrl=       0 DoSepK=F KAlg= 0 I1Cent=           0 FoldK=F
 IRaf= 660000000 NMat=     135 IRICut=     337 DoRegI=T DoRafI=T ISym2E= 2 IDoP0=0 IntGTp=1.
 FoFCou: FMM=F IPFlag=           0 FMFlag=      100000 FMFlg1=           0
         NFxFlg=           0 DoJE=F BraDBF=F KetDBF=F FulRan=T
         wScrn=  0.000000 ICntrl=         0 IOpCl=  0 I1Cent=           0 NGrid=           0
         NMat0=  135 NMatS0=    135 NMatT0=    0 NMatD0=  135 NMtDS0=    0 NMtDT0=    0
 Integrals replicated using symmetry in FoFCou.
 Raff kept on since  59.55% of shell-pairs survive, threshold=   0.20 IRatSp=60.
          There are   138 degrees of freedom in the 1st order CPHF.  IDoFFX=6 NUNeed=     0.
    132 vectors produced by pass  0 Test12= 2.72D-14 1.00D-09 XBig12= 1.02D-01 7.39D-02.
 AX will form   132 AO Fock derivatives at one time.
    132 vectors produced by pass  1 Test12= 2.72D-14 1.00D-09 XBig12= 1.24D-02 2.53D-02.
    132 vectors produced by pass  2 Test12= 2.72D-14 1.00D-09 XBig12= 3.39D-04 3.18D-03.
    132 vectors produced by pass  3 Test12= 2.72D-14 1.00D-09 XBig12= 5.51D-06 3.15D-04.
    132 vectors produced by pass  4 Test12= 2.72D-14 1.00D-09 XBig12= 6.66D-08 2.14D-05.
    132 vectors produced by pass  5 Test12= 2.72D-14 1.00D-09 XBig12= 4.46D-10 1.40D-06.
    121 vectors produced by pass  6 Test12= 2.72D-14 1.00D-09 XBig12= 2.95D-12 1.04D-07.
     38 vectors produced by pass  7 Test12= 2.72D-14 1.00D-09 XBig12= 1.54D-14 8.46D-09.
 InvSVY:  IOpt=1 It=  1 EMax= 3.33D-16
 Solved reduced A of dimension   951 with   138 vectors.
 End of Minotr F.D. properties file   721 does not exist.
 End of Minotr F.D. properties file   722 does not exist.
 End of Minotr F.D. properties file   788 does not exist.
 Leave Link 1002 at Thu Jan 30 15:01:38 2025, MaxMem=   104857600 cpu:            1129.1 elap:            1135.2
 (Enter /home/pb777/GAUSSIAN/g16/l601.exe)
 Copying SCF densities to generalized density rwf, IOpCl= 0 IROHF=0.

 **********************************************************************

            Population analysis using the SCF density.

 **********************************************************************

 Orbital symmetries:
       Occupied  (A) (A) (A) (A) (A) (A) (A) (A) (A) (A) (A) (A)
                 (A) (A) (A) (A) (A) (A) (A) (A) (A) (A) (A) (A)
                 (A) (A) (A) (A) (A) (A) (A) (A) (A) (A) (A) (A)
                 (A) (A) (A) (A) (A) (A) (A) (A) (A) (A) (A) (A)
                 (A) (A) (A) (A) (A) (A) (A) (A) (A) (A) (A) (A)
                 (A) (A) (A) (A) (A) (A) (A) (A) (A) (A) (A) (A)
                 (A) (A) (A) (A) (A) (A) (A) (A) (A) (A) (A) (A)
                 (A) (A)
       Virtual   (A) (A) (A) (A) (A) (A) (A) (A) (A) (A) (A) (A)
                 (A) (A) (A) (A) (A) (A) (A) (A) (A) (A) (A) (A)
                 (A) (A) (A) (A) (A) (A) (A) (A) (A) (A) (A) (A)
                 (A) (A) (A) (A) (A) (A) (A) (A) (A) (A) (A) (A)
                 (A) (A) (A) (A) (A) (A) (A) (A) (A) (A) (A) (A)
                 (A) (A) (A) (A) (A) (A) (A) (A) (A) (A) (A) (A)
                 (A) (A) (A) (A) (A) (A) (A) (A) (A) (A) (A) (A)
                 (A) (A) (A) (A) (A) (A) (A) (A) (A) (A) (A) (A)
                 (A) (A) (A) (A) (A) (A) (A) (A) (A) (A) (A) (A)
                 (A) (A) (A) (A) (A) (A) (A) (A) (A) (A) (A) (A)
                 (A) (A) (A) (A) (A) (A) (A) (A) (A) (A) (A) (A)
                 (A) (A) (A) (A) (A) (A) (A) (A) (A) (A) (A) (A)
                 (A) (A) (A) (A) (A) (A) (A) (A) (A) (A) (A) (A)
                 (A) (A) (A) (A) (A) (A) (A) (A) (A) (A) (A) (A)
                 (A) (A) (A) (A) (A) (A) (A) (A) (A) (A) (A) (A)
                 (A) (A) (A) (A) (A) (A) (A) (A) (A) (A) (A) (A)
                 (A) (A) (A) (A) (A) (A) (A) (A) (A) (A) (A) (A)
                 (A) (A) (A) (A) (A) (A) (A) (A) (A) (A) (A) (A)
                 (A) (A) (A) (A) (A) (A) (A) (A) (A) (A) (A) (A)
                 (A) (A) (A) (A) (A) (A) (A) (A) (A) (A) (A) (A)
                 (A) (A) (A) (A) (A) (A) (A) (A) (A) (A) (A) (A)
                 (A) (A) (A) (A) (A) (A) (A) (A) (A) (A) (A) (A)
                 (A) (A) (A) (A) (A) (A) (A) (A) (A) (A) (A) (A)
                 (A) (A) (A) (A) (A) (A) (A) (A) (A) (A) (A) (A)
                 (A) (A) (A) (A) (A) (A) (A) (A) (A) (A) (A) (A)
                 (A) (A) (A) (A) (A) (A) (A) (A) (A) (A) (A) (A)
                 (A) (A) (A) (A)
 The electronic state is 1-A.
 Alpha  occ. eigenvalues --  -20.60802 -15.62865 -15.59637 -15.55237 -15.54455
 Alpha  occ. eigenvalues --  -15.53343 -11.36306 -11.35349 -11.30342 -11.29298
 Alpha  occ. eigenvalues --  -11.28397 -11.27139 -11.24208 -11.23941 -11.23924
 Alpha  occ. eigenvalues --  -11.23518 -11.23441 -11.23165 -11.22094 -11.21644
 Alpha  occ. eigenvalues --  -11.21374 -11.21365 -11.21192 -11.20993  -1.43508
 Alpha  occ. eigenvalues --   -1.39316  -1.33398  -1.23224  -1.18481  -1.15795
 Alpha  occ. eigenvalues --   -1.13631  -1.10933  -1.04792  -1.02624  -1.01765
 Alpha  occ. eigenvalues --   -0.99868  -0.99802  -0.92823  -0.88046  -0.86901
 Alpha  occ. eigenvalues --   -0.83816  -0.83325  -0.82943  -0.82076  -0.80068
 Alpha  occ. eigenvalues --   -0.77878  -0.75591  -0.73966  -0.71935  -0.69119
 Alpha  occ. eigenvalues --   -0.67673  -0.66587  -0.66313  -0.63901  -0.63662
 Alpha  occ. eigenvalues --   -0.62946  -0.62663  -0.61886  -0.60527  -0.60082
 Alpha  occ. eigenvalues --   -0.59298  -0.59110  -0.58847  -0.57224  -0.54974
 Alpha  occ. eigenvalues --   -0.53784  -0.52062  -0.51504  -0.51042  -0.49928
 Alpha  occ. eigenvalues --   -0.49802  -0.48506  -0.48131  -0.47241  -0.46579
 Alpha  occ. eigenvalues --   -0.43944  -0.43787  -0.42851  -0.42077  -0.41824
[...]
 1099 Fit       0.003773
 1100 Fit       0.003989
 1101 Fit       0.004638
 1102 Fit       0.000292
 1103 Fit       0.000209
 1104 Fit       0.001615
 1105 Fit       0.002337
 1106 Fit       0.002195
 1107 Fit      -0.000721
 1108 Fit       0.001280
 1109 Fit       0.002700
 1110 Fit       0.003166
 1111 Fit       0.002915
 1112 Fit      -0.000368
 1113 Fit       0.001666
 1114 Fit       0.002760
 1115 Fit       0.002749
 1116 Fit       0.000599
 1117 Fit       0.002104
 1118 Fit       0.000744
 1119 Fit      -0.000186
 1120 Fit       0.001594
 1121 Fit       0.001392
 1122 Fit       0.000430
 1123 Fit      -0.001064
 1124 Fit       0.001835
 1125 Fit       0.001608
 1126 Fit       0.000537
 1127 Fit      -0.000816
 1128 Fit       0.001846
 1129 Fit       0.000979
 1130 Fit      -0.001707
 1131 Fit       0.000267
 1132 Fit      -0.000453
 1133 Fit      -0.000962
 1134 Fit       0.001927
 1135 Fit       0.001409
 1136 Fit      -0.000308
 1137 Fit       0.001312
 1138 Fit       0.003248
 1139 Fit       0.003254
 1140 Fit       0.001355
 1141 Fit       0.002587
 1142 Fit      -0.000712
 1143 Fit      -0.001183
 1144 Fit       0.000327
 1145 Fit       0.000837
 1146 Fit      -0.000769
 1147 Fit      -0.000532
 1148 Fit       0.001134
 1149 Fit       0.001621
 1150 Fit       0.000954
 1151 Fit      -0.000646
 1152 Fit      -0.000479
 1153 Fit       0.000732
 1154 Fit       0.001163
 1155 Fit       0.000908
 1156 Fit       0.000310
 1157 Fit      -0.000210
 1158 Fit      -0.000245
 1159 Fit      -0.000606
 1160 Fit      -0.001178
 1161 Fit      -0.001368
 1162 Fit      -0.000973
 1163 Fit      -0.000763
 1164 Fit      -0.000678
 1165 Fit      -0.001750
 1166 Fit      -0.002817
 1167 Fit      -0.003481
 1168 Fit      -0.003872
 1169 Fit      -0.003901
 1170 Fit      -0.003240
 1171 Fit      -0.007205
 1172 Fit      -0.006278
 1173 Fit      -0.003698
 1174 Fit      -0.001970
 1175 Fit      -0.000866
 1176 Fit      -0.009454
 1177 Fit      -0.005883
 1178 Fit      -0.002656
 1179 Fit      -0.000694
 1180 Fit       0.000316
 1181 Fit      -0.007563
 1182 Fit      -0.002754
 1183 Fit       0.000121
 1184 Fit      -0.007821
 1185 Fit      -0.007709
 1186 Fit      -0.012195
 1187 Fit      -0.013540
 1188 Fit      -0.012169
 1189 Fit      -0.009696
 1190 Fit      -0.018259
 1191 Fit      -0.025917
 1192 Fit      -0.027816
 1193 Fit      -0.020940
 1194 Fit      -0.013553
 1195 Fit      -0.023229
 1196 Fit      -0.000327
 1197 Fit      -0.003242
 1198 Fit       0.000856
 1199 Fit      -0.002020
 1200 Fit      -0.006004
 1201 Fit       0.002646
 1202 Fit       0.002165
 1203 Fit      -0.001242
 1204 Fit      -0.006083
 1205 Fit       0.004540
 1206 Fit      -0.001643
 1207 Fit       0.004795
 1208 Fit       0.004618
 1209 Fit       0.005157
 1210 Fit       0.006224
 1211 Fit       0.005027
 1212 Fit       0.007357
 1213 Fit       0.007634
 1214 Fit       0.008443
 1215 Fit       0.004649
 1216 Fit       0.006601
 1217 Fit       0.006569
 1218 Fit       0.006431
 1219 Fit       0.001704
 1220 Fit       0.003685
 1221 Fit       0.002304
 1222 Fit      -0.001386
 1223 Fit      -0.003450
 1224 Fit       0.004873
 1225 Fit       0.003730
 1226 Fit       0.001415
 1227 Fit       0.001950
 1228 Fit       0.002918
 1229 Fit       0.004848
 1230 Fit       0.005292
 1231 Fit       0.004248
 1232 Fit       0.005473
 1233 Fit       0.001489
 1234 Fit       0.004417
 1235 Fit       0.005199
 1236 Fit       0.003977
 1237 Fit      -0.004912
 1238 Fit       0.001540
 1239 Fit       0.000337
 1240 Fit       0.006126
 1241 Fit       0.005817
 1242 Fit       0.002550
 1243 Fit       0.007172
 1244 Fit       0.006883
 1245 Fit       0.006555
 1246 Fit       0.004750
 1247 Fit       0.000148
 1248 Fit       0.002623
 1249 Fit       0.004078
 1250 Fit       0.005109
 1251 Fit       0.005433
 1252 Fit       0.005140
 1253 Fit      -0.001536
 1254 Fit       0.001042
 1255 Fit       0.003466
 1256 Fit       0.000641
 1257 Fit       0.008379
 1258 Fit       0.026576
 1259 Fit       0.032724
 1260 Fit       0.019719
 1261 Fit       0.028591
 1262 Fit       0.033373
 1263 Fit       0.035903
 1264 Fit       0.022577
 1265 Fit       0.030573
 1266 Fit       0.033287
 1267 Fit       0.031910
 1268 Fit       0.011293
 1269 Fit       0.025427
 1270 Fit       0.026859
 1271 Fit       0.016864
 1272 Fit      -0.003854
 1273 Fit       0.014284
 1274 Fit       0.010584
 1275 Fit       0.014590
 1276 Fit       0.002324
 1277 Fit       0.016571
 1278 Fit       0.006305
 1279 Fit       0.009371
 1280 Fit       0.000068
 1281 Fit       0.007459
 1282 Fit       0.006120
 1283 Fit       0.010087
 1284 Fit       0.016233
 1285 Fit       0.009479
 1286 Fit       0.009725
 1287 Fit       0.012261
 1288 Fit       0.015425
 1289 Fit       0.007544
 1290 Fit       0.009294
 1291 Fit       0.008060
 1292 Fit       0.002950
 1293 Fit      -0.011723
 1294 Fit      -0.009190
 1295 Fit      -0.009223
 1296 Fit      -0.012104
 1297 Fit      -0.010291
 1298 Fit      -0.005460
 1299 Fit      -0.004930
 1300 Fit      -0.001897
 1301 Fit       0.004358
 1302 Fit       0.008068
 1303 Fit       0.013857
 1304 Fit      -0.009727
 1305 Fit       0.004955
 1306 Fit      -0.005899
 1307 Fit       0.016719
 1308 Fit       0.006504
 1309 Fit      -0.002842
 1310 Fit      -0.009214
 1311 Fit       0.002235
 1312 Fit       0.004481
 1313 Fit      -0.000526
 1314 Fit      -0.000718
 1315 Fit      -0.000422
 1316 Fit       0.000488
 1317 Fit       0.000953
 1318 Fit      -0.001466
 1319 Fit      -0.001406
 1320 Fit      -0.001650
 1321 Fit      -0.001441
 1322 Fit      -0.000792
 1323 Fit      -0.002285
 1324 Fit      -0.005485
 1325 Fit      -0.002558
 1326 Fit      -0.008420
 1327 Fit      -0.005721
 1328 Fit      -0.006244
 1329 Fit      -0.014963
 1330 Fit      -0.015787
 1331 Fit      -0.008406
 1332 Fit      -0.009138
 1333 Fit      -0.002513
 1334 Fit      -0.002764
 1335 Fit      -0.000995
 1336 Fit      -0.016243
 1337 Fit      -0.013939
 1338 Fit      -0.007887
 1339 Fit      -0.000821
 1340 Fit      -0.004118
 1341 Fit      -0.009642
 1342 Fit      -0.008013
 1343 Fit      -0.003336
 1344 Fit      -0.012700
 1345 Fit      -0.018096
 1346 Fit      -0.007631
 1347 Fit      -0.009235
 1348 Fit      -0.004737
 1349 Fit      -0.004396
 1350 Fit      -0.000853
 1351 Fit      -0.007999
 1352 Fit      -0.017917
 1353 Fit      -0.012176
 1354 Fit      -0.006234
 1355 Fit      -0.010799
 1356 Fit      -0.004775
 1357 Fit      -0.006249
 1358 Fit      -0.010457
 1359 Fit      -0.003674
 1360 Fit      -0.013314
 1361 Fit      -0.018220
 1362 Fit      -0.006669
 1363 Fit      -0.001350
 1364 Fit      -0.004273
 1365 Fit      -0.009896
 1366 Fit      -0.006718
 1367 Fit      -0.003986
 1368 Fit      -0.017662
 1369 Fit      -0.013675
 1370 Fit      -0.012609
 1371 Fit      -0.013707
 1372 Fit      -0.005992
 1373 Fit      -0.017761
 1374 Fit      -0.016446
 1375 Fit      -0.013962
 1376 Fit      -0.012530
 1377 Fit      -0.017556
 1378 Fit      -0.011039
 1379 Fit      -0.009442
 1380 Fit      -0.015517
 1381 Fit      -0.009546
 1382 Fit      -0.011866
 1383 Fit      -0.015338
 1384 Fit      -0.007217
 1385 Fit      -0.009206
 1386 Fit      -0.014535
 1387 Fit      -0.009345
 1388 Fit      -0.007610
 1389 Fit      -0.008362
 1390 Fit      -0.032042
 1391 Fit      -0.016629
 1392 Fit      -0.015092
 1393 Fit      -0.008356
 1394 Fit      -0.015772
 1395 Fit      -0.010833
 1396 Fit      -0.015593
 1397 Fit      -0.011393
 1398 Fit      -0.023874
 1399 Fit      -0.020564
 1400 Fit      -0.017813
 1401 Fit      -0.019426
 1402 Fit      -0.025868
 1403 Fit      -0.027927
 1404 Fit      -0.024752
 1405 Fit      -0.016456
 1406 Fit      -0.013053
 1407 Fit      -0.012446
 1408 Fit      -0.021940
 1409 Fit      -0.029159
 1410 Fit      -0.031263
 1411 Fit      -0.019755
 1412 Fit      -0.028181
 1413 Fit      -0.032300
 1414 Fit      -0.016461
 1415 Fit      -0.025603
 1416 Fit      -0.030202
 1417 Fit      -0.012978
 1418 Fit      -0.022070
 1419 Fit      -0.026337
 1420 Fit      -0.028388
 1421 Fit      -0.018083
 1422 Fit      -0.021457
 1423 Fit      -0.013956
 1424 Fit      -0.016116
 1425 Fit       0.001116
 1426 Fit       0.007882
 1427 Fit       0.001653
 1428 Fit       0.009923
 1429 Fit       0.017119
 1430 Fit       0.001542
 1431 Fit       0.014089
 1432 Fit       0.031021
 1433 Fit       0.019449
 1434 Fit       0.019100
 1435 Fit       0.009049
 1436 Fit       0.000432
 1437 Fit       0.013762
 1438 Fit       0.004594
 1439 Fit       0.002959
 1440 Fit      -0.007950
 1441 Fit      -0.005378
 1442 Fit      -0.005789
 1443 Fit      -0.008104
 1444 Fit      -0.005567
 1445 Fit      -0.008140
 1446 Fit      -0.008573
 1447 Fit      -0.009651
 1448 Fit      -0.006894
 1449 Fit      -0.006586
 1450 Fit      -0.007282
 1451 Fit      -0.000002
 1452 Fit      -0.005049
 1453 Fit      -0.000587
 1454 Fit      -0.003288
 1455 Fit      -0.000018
 1456 Fit      -0.004375
 1457 Fit      -0.000983
 1458 Fit      -0.000302
 1459 Fit      -0.005329
 1460 Fit      -0.008680
 1461 Fit      -0.005269
 1462 Fit      -0.007316
 1463 Fit      -0.009245
 1464 Fit      -0.009876
 1465 Fit      -0.007467
 1466 Fit      -0.013719
 1467 Fit      -0.010661
 1468 Fit      -0.008286
 1469 Fit      -0.006446
 1470 Fit       0.002098
 1471 Fit      -0.014398
 1472 Fit      -0.009532
 1473 Fit      -0.010971
 1474 Fit       0.000288
 1475 Fit      -0.007010
 1476 Fit      -0.020311
 1477 Fit      -0.015373
 1478 Fit      -0.015698
 1479 Fit      -0.015732
 1480 Fit      -0.020695
 1481 Fit      -0.013772
 1482 Fit      -0.010568
 1483 Fit      -0.009741
 1484 Fit      -0.005402
 1485 Fit      -0.003809
 1486 Fit       0.000059
 1487 Fit       0.001976
 1488 Fit      -0.007604
 1489 Fit      -0.014477
 1490 Fit      -0.000809
 1491 Fit      -0.008351
 1492 Fit      -0.004234
 1493 Fit       0.006134
 1494 Fit      -0.002231
 1495 Fit       0.013858
 1496 Fit       0.014121
 1497 Fit       0.011551
 1498 Fit       0.005658
 1499 Fit      -0.006023
 1500 Fit       0.021067
 1501 Fit       0.018829
 1502 Fit       0.015729
 1503 Fit       0.011046
 1504 Fit       0.003497
 1505 Fit       0.028283
 1506 Fit       0.022544
 1507 Fit       0.018046
 1508 Fit       0.012908
 1509 Fit       0.005660
 1510 Fit       0.026684
 1511 Fit       0.018933
 1512 Fit       0.011960
 1513 Fit       0.006122
 1514 Fit      -0.004968
 1515 Fit      -0.000580
 1516 Fit       0.002440
 1517 Fit       0.003312
 1518 Fit       0.001172
 1519 Fit      -0.003744
 1520 Fit      -0.001450
 1521 Fit      -0.005216
 1522 Fit      -0.008350
 1523 Fit       0.000141
 1524 Fit      -0.003032
 1525 Fit      -0.005487
 1526 Fit       0.004229
 1527 Fit      -0.004624
 1528 Fit      -0.008441
 1529 Fit       0.000984
 1530 Fit      -0.018466
 1531 Fit      -0.008138
 1532 Fit      -0.002157
 1533 Fit      -0.021547
 1534 Fit      -0.009324
 1535 Fit      -0.003075
 1536 Fit       0.000411
 1537 Fit      -0.015702
 1538 Fit      -0.006302
 1539 Fit      -0.001385
 1540 Fit       0.001260
 1541 Fit      -0.002962
 1542 Fit       0.001243
 1543 Fit       0.003532
 1544 Fit       0.003283
 1545 Fit       0.003399
 1546 Fit       0.003987
 1547 Fit       0.002860
 1548 Fit       0.003301
 1549 Fit       0.003864
 1550 Fit       0.002810
 1551 Fit       0.003722
 1552 Fit       0.004459
 1553 Fit       0.001778
 1554 Fit       0.002262
 1555 Fit       0.002476
 1556 Fit       0.005230
 1557 Fit       0.002304
 1558 Fit       0.002167
 1559 Fit       0.002282
 1560 Fit       0.002568
 1561 Fit       0.002841
 1562 Fit       0.003538
 1563 Fit       0.003397
 1564 Fit       0.002826
 1565 Fit       0.002813
 1566 Fit       0.002957
 1567 Fit       0.003217
 1568 Fit       0.000321
 1569 Fit       0.001021
 1570 Fit       0.001469
 1571 Fit       0.001455
 1572 Fit       0.000136
 1573 Fit       0.001330
 1574 Fit       0.002135
 1575 Fit       0.002388
 1576 Fit       0.002339
 1577 Fit      -0.000057
 1578 Fit       0.001317
 1579 Fit       0.002252
 1580 Fit       0.002597
 1581 Fit       0.002555
 1582 Fit       0.001253
 1583 Fit       0.002134
 1584 Fit       0.002323
 1585 Fit       0.000451
 1586 Fit       0.000798
 1587 Fit       0.000520
 1588 Fit      -0.000211
 1589 Fit       0.000830
 1590 Fit       0.001033
 1591 Fit       0.000795
 1592 Fit       0.000039
 1593 Fit       0.001138
 1594 Fit       0.001053
 1595 Fit       0.000472
 1596 Fit       0.001398
 1597 Fit       0.001035
 1598 Fit      -0.000179
 1599 Fit      -0.000639
 1600 Fit      -0.000948
 1601 Fit       0.001044
 1602 Fit       0.000605
 1603 Fit      -0.000456
 1604 Fit       0.000652
 1605 Fit       0.002108
 1606 Fit       0.001915
 1607 Fit       0.000950
 1608 Fit       0.001777
 1609 Fit       0.003595
 1610 Fit       0.001966
 1611 Fit       0.002828
 1612 Fit      -0.000768
 1613 Fit      -0.001088
 1614 Fit      -0.000104
 1615 Fit       0.000288
 1616 Fit      -0.000725
 1617 Fit      -0.000686
 1618 Fit       0.000586
 1619 Fit       0.001000
 1620 Fit       0.000557
 1621 Fit      -0.000549
 1622 Fit      -0.000050
 1623 Fit       0.000791
 1624 Fit       0.001002
 1625 Fit       0.000715
 1626 Fit       0.000083
 1627 Fit       0.000147
 1628 Fit       0.000462
 1629 Fit       0.000371
 1630 Fit      -0.000626
 1631 Fit      -0.000557
 1632 Fit      -0.000960
 1633 Fit      -0.001389
 1634 Fit      -0.001373
 1635 Fit      -0.000983
 1636 Fit      -0.000802
 1637 Fit      -0.000750
 1638 Fit      -0.001578
 1639 Fit      -0.002478
 1640 Fit      -0.003036
 1641 Fit      -0.003230
 1642 Fit      -0.003062
 1643 Fit      -0.002437
 1644 Fit      -0.005568
 1645 Fit      -0.005971
 1646 Fit      -0.005918
 1647 Fit      -0.003850
 1648 Fit      -0.002332
 1649 Fit      -0.006994
 1650 Fit      -0.004236
 1651 Fit      -0.002191
 1652 Fit      -0.000919
 1653 Fit      -0.008516
 1654 Fit      -0.004480
 1655 Fit      -0.001790
 1656 Fit      -0.000131
 1657 Fit      -0.008532
 1658 Fit      -0.003363
 1659 Fit      -0.000233
 1660 Fit      -0.010259
 1661 Fit      -0.011305
 1662 Fit      -0.010403
 1663 Fit      -0.013561
 1664 Fit      -0.018409
 1665 Fit      -0.021013
 1666 Fit      -0.018172
 1667 Fit      -0.013291
 1668 Fit      -0.021029
 1669 Fit      -0.000731
 1670 Fit      -0.002912
 1671 Fit       0.000062
 1672 Fit      -0.002252
 1673 Fit      -0.005195
 1674 Fit       0.001725
 1675 Fit       0.000758
 1676 Fit      -0.001797
 1677 Fit      -0.005173
 1678 Fit       0.002732
 1679 Fit      -0.005487
 1680 Fit       0.001696
 1681 Fit       0.001373
 1682 Fit       0.002184
 1683 Fit       0.004975
 1684 Fit       0.005095
 1685 Fit       0.005790
 1686 Fit       0.004995
 1687 Fit       0.004903
 1688 Fit       0.005984
 1689 Fit       0.006374
 1690 Fit       0.006968
 1691 Fit       0.003154
 1692 Fit       0.005157
 1693 Fit       0.004882
 1694 Fit       0.004840
 1695 Fit       0.002493
 1696 Fit       0.001507
 1697 Fit       0.003829
 1698 Fit       0.001983
 1699 Fit      -0.000441
 1700 Fit      -0.000657
 1701 Fit       0.003645
 1702 Fit       0.003869
 1703 Fit       0.003436
 1704 Fit       0.001991
 1705 Fit       0.003071
 1706 Fit       0.001731
 1707 Fit       0.003572
 1708 Fit       0.004162
 1709 Fit       0.003804
 1710 Fit       0.004918
 1711 Fit      -0.000020
 1712 Fit       0.002719
 1713 Fit       0.003830
 1714 Fit       0.000335
 1715 Fit       0.000081
 1716 Fit       0.005262
 1717 Fit       0.004511
 1718 Fit       0.001541
 1719 Fit       0.005773
 1720 Fit       0.005143
 1721 Fit       0.003322
 1722 Fit      -0.000726
 1723 Fit       0.004811
 1724 Fit       0.004812
 1725 Fit       0.004940
 1726 Fit       0.004561
 1727 Fit       0.003320
 1728 Fit      -0.000060
 1729 Fit       0.001666
 1730 Fit       0.002783
 1731 Fit       0.003611
 1732 Fit      -0.001374
 1733 Fit       0.013866
 1734 Fit       0.021793
 1735 Fit       0.026684
 1736 Fit       0.030102
 1737 Fit       0.015136
 1738 Fit       0.023375
 1739 Fit       0.027682
 1740 Fit       0.029707
 1741 Fit       0.030027
 1742 Fit       0.017712
 1743 Fit       0.024688
 1744 Fit       0.027024
 1745 Fit       0.025708
 1746 Fit       0.008367
 1747 Fit       0.019852
 1748 Fit       0.021319
 1749 Fit       0.013028
 1750 Fit       0.006526
 1751 Fit       0.004979
 1752 Fit       0.011696
 1753 Fit       0.004481
 1754 Fit       0.012364
 1755 Fit       0.003730
 1756 Fit       0.012713
 1757 Fit       0.004950
 1758 Fit       0.006605
 1759 Fit       0.003580
 1760 Fit       0.002341
 1761 Fit       0.006196
 1762 Fit       0.011458
 1763 Fit       0.006591
 1764 Fit       0.008835
 1765 Fit       0.012165
 1766 Fit       0.008301
 1767 Fit       0.009891
 1768 Fit       0.011413
 1769 Fit       0.010325
 1770 Fit       0.005851
 1771 Fit       0.007187
 1772 Fit       0.005801
 1773 Fit       0.002166
 -----------------------------------------------------------------
 Leave Link  602 at Thu Jan 30 16:59:09 2025, MaxMem=   104857600 cpu:               0.2 elap:               0.2
 (Enter /home/pb777/GAUSSIAN/g16/l9999.exe)

 Test job not archived.
 1\1\GINC-BUMBU\SP\RHF\6-31G(d)\C18H21N5O1\PB777\30-Jan-2025\0\\#P HF/6
 -31G* GEOM(AllCheck) Guess(Read) NoSymm Pop=mk IOp(6/33=2) GFInput GFP
 rint\\Gaussian Calculation\\0,1\C,0,1.6014932065,29.1283599399,6.89489
 51865\C,0,-1.5391799281,31.7489312028,8.3766547402\C,0,-0.2007042239,2
 6.3405161785,9.1552917393\C,0,-1.0723700897,25.5370473774,10.101203439
 3\C,0,-0.6256713616,24.0721089385,10.109670602\C,0,-1.4750634937,23.23
 0856827,11.0614649911\C,0,-1.4729184807,23.8118697075,12.4743165092\C,
 0,-1.9173185797,25.273299948,12.4703232498\C,0,-1.066126989,26.1126670
 519,11.5196498798\C,0,5.3129004829,26.4711471155,5.0027704116\C,0,4.97
 88911864,25.2748368052,5.6333352664\C,0,3.8651697283,25.2446975589,6.4
 663292349\C,0,3.085321039,26.3770987146,6.6796961404\N,0,0.9856533305,
 28.2023863128,7.6531315941\C,0,-0.093221638,28.5560783759,8.3383719412
 \O,0,-0.7264477977,27.6697327337,9.0952762364\C,0,-0.5782571658,29.871
 4478321,8.2704405658\N,0,-1.6407850236,30.5378454809,8.8447472205\N,0,
 -0.4700506112,31.9251447087,7.5246129709\C,0,0.1686915981,30.718531252
 5,7.4409955901\N,0,1.2521145188,30.4126867155,6.7364135406\N,0,2.71752
 12287,28.7746204511,6.1820474918\C,0,3.4220476905,27.5797431389,6.0450
 722685\C,0,4.5463308852,27.6091492288,5.2045567633\H,0,-2.2103087857,3
 2.5654180393,8.6111251523\H,0,-0.198258857,25.9091001613,8.146867503\H
 ,0,0.8382665576,26.3788006665,9.5070748417\H,0,-2.1034374569,25.579879
 0305,9.7173028362\H,0,0.4281885769,24.0204687406,10.4245932554\H,0,-0.
 6696398126,23.6565864099,9.0939757538\H,0,-1.1127723916,22.1954246078,
 11.0721031992\H,0,-2.5082688053,23.1969361062,10.6860282241\H,0,-0.456
 6944563,23.7446601059,12.8904341997\H,0,-2.1193663132,23.2161946205,13
 .1308294158\H,0,-1.8706590512,25.6899035911,13.4840359142\H,0,-2.97051
 03897,25.3308867787,12.1583085633\H,0,-1.416360435,27.1503849513,11.49
 90625685\H,0,-0.0274814884,26.1352841024,11.8858208751\H,0,6.177897710
 9,26.5227141375,4.3467651683\H,0,5.5775659291,24.3823380731,5.47693494
 26\H,0,3.588918323,24.3199408695,6.9669540699\H,0,2.2210926331,26.3456
 331429,7.328339808\H,0,-0.1969791742,32.7705485329,7.0481122081\H,0,3.
 0809334669,29.558466941,5.6584886571\H,0,4.8168547071,28.5386267942,4.
 7065752699\\Version=ES64L-G16RevA.03\HF=-1041.0059798\RMSD=4.645e-09\D
 ipole=0.1783116,0.6968243,-0.3404186\Quadrupole=-28.2177287,66.8900649
 ,-38.6723362,8.0394386,0.8281823,-13.8876488\PG=C01 [X(C18H21N5O1)]\\@


 IN NATURE THERE ARE NEITHER REWARDS OR
 PUNISHMENTS -- THERE ARE CONSEQUENCES.

                            -- ROBERT GREEN INGERSOLL
 Job cpu time:       0 days  0 hours  1 minutes 45.4 seconds.
 Elapsed time:       0 days  0 hours  1 minutes 45.8 seconds.
 File lengths (MBytes):  RWF=     88 Int=      0 D2E=      0 Chk=     16 Scr=      1
 Normal termination of Gaussian 16 at Thu Jan 30 16:59:09 2025.
