 Entering Gaussian System, Link 0=/home/pb777/GAUSSIAN/g16/g16
 Initial command:
 /home/pb777/GAUSSIAN/g16/l1.exe "/home/pb777/GAUSSIAN/g16/scratch/Gau-1062708.inp" -scrdir="/home/pb777/GAUSSIAN/g16/scratch/"
 Entering Link 1 = /home/pb777/GAUSSIAN/g16/l1.exe PID=   1062709.
  
 Copyright (c) 1988,1990,1992,1993,1995,1998,2003,2009,2016,
            Gaussian, Inc.  All Rights Reserved.
  
 This is part of the Gaussian(R) 16 program.  It is based on
 the Gaussian(R) 09 system (copyright 2009, Gaussian, Inc.),
 the Gaussian(R) 03 system (copyright 2003, Gaussian, Inc.),
 the Gaussian(R) 98 system (copyright 1998, Gaussian, Inc.),
 the Gaussian(R) 94 system (copyright 1995, Gaussian, Inc.),
 the Gaussian 92(TM) system (copyright 1992, Gaussian, Inc.),
 the Gaussian 90(TM) system (copyright 1990, Gaussian, Inc.),
 the Gaussian 88(TM) system (copyright 1988, Gaussian, Inc.),
 the Gaussian 86(TM) system (copyright 1986, Carnegie Mellon
 University), and the Gaussian 82(TM) system (copyright 1983,
 Carnegie Mellon University). Gaussian is a federally registered
 trademark of Gaussian, Inc.
  
 This software contains proprietary and confidential information,
 including trade secrets, belonging to Gaussian, Inc.
  
 This software is provided under written license and may be
 used, copied, transmitted, or stored only in accord with that
 written license.
  
 The following legend is applicable only to US Government
 contracts under FAR:
  
                    RESTRICTED RIGHTS LEGEND
  
 Use, reproduction and disclosure by the US Government is
 subject to restrictions as set forth in subparagraphs (a)
 and (c) of the Commercial Computer Software - Restricted
 Rights clause in FAR 52.227-19.
  
 Gaussian, Inc.
 340 Quinnipiac St., Bldg. 40, Wallingford CT 06492
  
  
 ---------------------------------------------------------------
 Warning -- This program may not be used in any manner that
 competes with the business of Gaussian, Inc. or will provide
 assistance to any competitor of Gaussian, Inc.  The licensee
 of this program is prohibited from giving any competitor of
 Gaussian, Inc. access to this program.  By using this program,
 the user acknowledges that Gaussian, Inc. is engaged in the
 business of creating and licensing software in the field of
 computational chemistry and represents and warrants to the
 licensee that it is not a competitor of Gaussian, Inc. and that
 it will not use this program in any manner prohibited above.
 ---------------------------------------------------------------
  

 Cite this work as:
 Gaussian 16, Revision A.03,
 M. J. Frisch, G. W. Trucks, H. B. Schlegel, G. E. Scuseria, 
 M. A. Robb, J. R. Cheeseman, G. Scalmani, V. Barone, 
 G. A. Petersson, H. Nakatsuji, X. Li, M. Caricato, A. V. Marenich, 
 J. Bloino, B. G. Janesko, R. Gomperts, B. Mennucci, H. P. Hratchian, 
 J. V. Ortiz, A. F. Izmaylov, J. L. Sonnenberg, D. Williams-Young, 
 F. Ding, F. Lipparini, F. Egidi, J. Goings, B. Peng, A. Petrone, 
 T. Henderson, D. Ranasinghe, V. G. Zakrzewski, J. Gao, N. Rega, 
 G. Zheng, W. Liang, M. Hada, M. Ehara, K. Toyota, R. Fukuda, 
 J. Hasegawa, M. Ishida, T. Nakajima, Y. Honda, O. Kitao, H. Nakai, 
 T. Vreven, K. Throssell, J. A. Montgomery, Jr., J. E. Peralta, 
 F. Ogliaro, M. J. Bearpark, J. J. Heyd, E. N. Brothers, K. N. Kudin, 
 V. N. Staroverov, T. A. Keith, R. Kobayashi, J. Normand, 
 K. Raghavachari, A. P. Rendell, J. C. Burant, S. S. Iyengar, 
 J. Tomasi, M. Cossi, J. M. Millam, M. Klene, C. Adamo, R. Cammi, 
 J. W. Ochterski, R. L. Martin, K. Morokuma, O. Farkas, 
 J. B. Foresman, and D. J. Fox, Gaussian, Inc., Wallingford CT, 2016.
 
 ******************************************
 Gaussian 16:  ES64L-G16RevA.03 25-Dec-2016
                30-Jan-2025 
 ******************************************
 %NPROC=1', f'%MEM=512MB
 Will use up to    1 processors via shared memory.
 %chk=binder_1oiy.antechamber.chk
 ------------------------
 #P HF/6-31G* OPT(CalcFC)
 ------------------------
 1/10=4,18=20,19=15,38=1/1,3;
 2/9=110,12=2,17=6,18=5,40=1/2;
 3/5=1,6=6,7=1,11=9,25=1,30=1,71=2,140=1/1,2,3;
 4//1;
 5/5=2,38=5/2;
 8/6=4,10=90,11=11/1;
 11/6=1,8=1,9=11,15=111,16=1/1,2,10;
 10/6=1,13=1/2;
 6/7=2,8=2,9=2,10=2,28=1/1;
 7/10=1,18=20,25=1/1,2,3,16;
 1/10=4,18=20,19=15/3(2);
 2/9=110/2;
 99//99;
 2/9=110/2;
 3/5=1,6=6,7=1,11=9,25=1,30=1,71=1/1,2,3;
 4/5=5,16=3,69=1/1;
 5/5=2,38=5/2;
 7//1,2,3,16;
 1/18=20,19=15/3(-5);
 2/9=110/2;
 6/7=2,8=2,9=2,10=2,19=2,28=1/1;
 99/9=1/99;
 Leave Link    1 at Thu Jan 30 14:39:57 2025, MaxMem=           0 cpu:               0.0 elap:               0.0
 (Enter /home/pb777/GAUSSIAN/g16/l101.exe)
 --------------------
 Gaussian Calculation
 --------------------
 Symbolic Z-matrix:
 Charge =  0 Multiplicity = 1
 C                     1.422     29.034    6.768 
 C                    -1.45      32.163    8.008 
 C                    -0.582     26.625    8.978 
 C                    -1.25      25.767    10.081 
 C                    -1.355     24.331    9.527 
 C                    -1.653     23.273    10.603 
 C                    -0.781     23.343    11.865 
 C                    -0.712     24.779    12.432 
 C                    -0.388     25.86     11.38 
 C                     4.737     25.789    5.713 
 C                     4.747     25.223    6.999 
 C                     4.029     25.863    8.018 
 C                     3.318     27.029    7.745 
 N                     0.488     28.18     7.498 
 C                    -0.568     28.637    8.086 
 O                    -1.389     27.808    8.752 
 C                    -0.837     30.059    7.987 
 N                    -1.806     31.022    8.425 
 N                    -0.337     32.096    7.318 
 C                     0.012     30.844    7.311 
 N                     1.172     30.278    6.709 
 N                     2.523     28.721    6.157 
 C                     3.284     27.575    6.455 
 C                     4.019     26.956    5.449 
 H                    -1.973     33.085    8.159 
 H                    -0.54      26.054    8.043 
 H                     0.454     26.776    9.311 
 H                    -2.258     26.125    10.296 
 H                    -0.409     24.042    9.064 
 H                    -2.106     24.282    8.736 
 H                    -1.609     22.271    10.176 
 H                    -2.684     23.422    10.916 
 H                     0.23      23.014    11.618 
 H                    -1.151     22.652    12.623 
 H                    -0.027     24.811    13.272 
 H                    -1.687     25.018    12.862 
 H                    -0.474     26.853    11.824 
 H                     0.671     25.729    11.148 
 H                     5.294     25.335    4.905 
 H                     4.009     25.472    9.027 
 H                     2.769     27.499    8.546 
 H                     0.088     32.896    6.844 
 H                     2.979     29.465    5.646 
 H                     4.03      27.377    4.456 
 C                     5.535     23.957    7.257 
 O                     5.938     23.246    6.34 
 H                     6.447     22.84     8.621 
 N                     5.861     23.647    8.503 
 H                     5.301     23.929    9.309 
 
 ITRead=  0  0  0  0  0  0  0  0  0  0  0  0  0  0  0  0  0  0  0  0
 ITRead=  0  0  0  0  0  0  0  0  0  0  0  0  0  0  0  0  0  0  0  0
 ITRead=  0  0  0  0  0  0  0  0  0
 MicOpt= -1 -1 -1 -1 -1 -1 -1 -1 -1 -1 -1 -1 -1 -1 -1 -1 -1 -1 -1 -1
 MicOpt= -1 -1 -1 -1 -1 -1 -1 -1 -1 -1 -1 -1 -1 -1 -1 -1 -1 -1 -1 -1
 MicOpt= -1 -1 -1 -1 -1 -1 -1 -1 -1
 NAtoms=     49 NQM=       49 NQMF=       0 NMMI=      0 NMMIF=      0
                NMic=       0 NMicF=      0.
                    Isotopes and Nuclear Properties:
 (Nuclear quadrupole moments (NQMom) in fm**2, nuclear magnetic moments (NMagM)
  in nuclear magnetons)

  Atom         1           2           3           4           5           6           7           8           9          10
 IAtWgt=          12          12          12          12          12          12          12          12          12          12
 AtmWgt=  12.0000000  12.0000000  12.0000000  12.0000000  12.0000000  12.0000000  12.0000000  12.0000000  12.0000000  12.0000000
 NucSpn=           0           0           0           0           0           0           0           0           0           0
 AtZEff=  -0.0000000  -0.0000000  -0.0000000  -0.0000000  -0.0000000  -0.0000000  -0.0000000  -0.0000000  -0.0000000  -0.0000000
 NQMom=    0.0000000   0.0000000   0.0000000   0.0000000   0.0000000   0.0000000   0.0000000   0.0000000   0.0000000   0.0000000
 NMagM=    0.0000000   0.0000000   0.0000000   0.0000000   0.0000000   0.0000000   0.0000000   0.0000000   0.0000000   0.0000000
 AtZNuc=   6.0000000   6.0000000   6.0000000   6.0000000   6.0000000   6.0000000   6.0000000   6.0000000   6.0000000   6.0000000

  Atom        11          12          13          14          15          16          17          18          19          20
 IAtWgt=          12          12          12          14          12          16          12          14          14          12
 AtmWgt=  12.0000000  12.0000000  12.0000000  14.0030740  12.0000000  15.9949146  12.0000000  14.0030740  14.0030740  12.0000000
 NucSpn=           0           0           0           2           0           0           0           2           2           0
 AtZEff=  -0.0000000  -0.0000000  -0.0000000  -0.0000000  -0.0000000  -0.0000000  -0.0000000  -0.0000000  -0.0000000  -0.0000000
 NQMom=    0.0000000   0.0000000   0.0000000   2.0440000   0.0000000   0.0000000   0.0000000   2.0440000   2.0440000   0.0000000
 NMagM=    0.0000000   0.0000000   0.0000000   0.4037610   0.0000000   0.0000000   0.0000000   0.4037610   0.4037610   0.0000000
 AtZNuc=   6.0000000   6.0000000   6.0000000   7.0000000   6.0000000   8.0000000   6.0000000   7.0000000   7.0000000   6.0000000

  Atom        21          22          23          24          25          26          27          28          29          30
 IAtWgt=          14          14          12          12           1           1           1           1           1           1
 AtmWgt=  14.0030740  14.0030740  12.0000000  12.0000000   1.0078250   1.0078250   1.0078250   1.0078250   1.0078250   1.0078250
 NucSpn=           2           2           0           0           1           1           1           1           1           1
 AtZEff=  -0.0000000  -0.0000000  -0.0000000  -0.0000000  -0.0000000  -0.0000000  -0.0000000  -0.0000000  -0.0000000  -0.0000000
 NQMom=    2.0440000   2.0440000   0.0000000   0.0000000   0.0000000   0.0000000   0.0000000   0.0000000   0.0000000   0.0000000
 NMagM=    0.4037610   0.4037610   0.0000000   0.0000000   2.7928460   2.7928460   2.7928460   2.7928460   2.7928460   2.7928460
 AtZNuc=   7.0000000   7.0000000   6.0000000   6.0000000   1.0000000   1.0000000   1.0000000   1.0000000   1.0000000   1.0000000

  Atom        31          32          33          34          35          36          37          38          39          40
 IAtWgt=           1           1           1           1           1           1           1           1           1           1
 AtmWgt=   1.0078250   1.0078250   1.0078250   1.0078250   1.0078250   1.0078250   1.0078250   1.0078250   1.0078250   1.0078250
 NucSpn=           1           1           1           1           1           1           1           1           1           1
 AtZEff=  -0.0000000  -0.0000000  -0.0000000  -0.0000000  -0.0000000  -0.0000000  -0.0000000  -0.0000000  -0.0000000  -0.0000000
 NQMom=    0.0000000   0.0000000   0.0000000   0.0000000   0.0000000   0.0000000   0.0000000   0.0000000   0.0000000   0.0000000
 NMagM=    2.7928460   2.7928460   2.7928460   2.7928460   2.7928460   2.7928460   2.7928460   2.7928460   2.7928460   2.7928460
 AtZNuc=   1.0000000   1.0000000   1.0000000   1.0000000   1.0000000   1.0000000   1.0000000   1.0000000   1.0000000   1.0000000

  Atom        41          42          43          44          45          46          47          48          49
 IAtWgt=           1           1           1           1          12          16           1          14           1
 AtmWgt=   1.0078250   1.0078250   1.0078250   1.0078250  12.0000000  15.9949146   1.0078250  14.0030740   1.0078250
 NucSpn=           1           1           1           1           0           0           1           2           1
 AtZEff=  -0.0000000  -0.0000000  -0.0000000  -0.0000000  -0.0000000  -0.0000000  -0.0000000  -0.0000000  -0.0000000
 NQMom=    0.0000000   0.0000000   0.0000000   0.0000000   0.0000000   0.0000000   0.0000000   2.0440000   0.0000000
 NMagM=    2.7928460   2.7928460   2.7928460   2.7928460   0.0000000   0.0000000   2.7928460   0.4037610   2.7928460
 AtZNuc=   1.0000000   1.0000000   1.0000000   1.0000000   6.0000000   8.0000000   1.0000000   7.0000000   1.0000000
 Leave Link  101 at Thu Jan 30 14:39:57 2025, MaxMem=   104857600 cpu:               0.1 elap:               0.2
 (Enter /home/pb777/GAUSSIAN/g16/l103.exe)

 GradGradGradGradGradGradGradGradGradGradGradGradGradGradGradGradGradGrad
 Berny optimization.
 Initialization pass.
                           ----------------------------
                           !    Initial Parameters    !
                           ! (Angstroms and Degrees)  !
 --------------------------                            --------------------------
 ! Name  Definition              Value          Derivative Info.                !
 --------------------------------------------------------------------------------
 ! R1    R(1,14)                 1.461          calculate D2E/DX2 analytically  !
 ! R2    R(1,21)                 1.2702         calculate D2E/DX2 analytically  !
 ! R3    R(1,22)                 1.2975         calculate D2E/DX2 analytically  !
 ! R4    R(2,18)                 1.2659         calculate D2E/DX2 analytically  !
 ! R5    R(2,19)                 1.3112         calculate D2E/DX2 analytically  !
 ! R6    R(2,25)                 1.0707         calculate D2E/DX2 analytically  !
 ! R7    R(3,4)                  1.5489         calculate D2E/DX2 analytically  !
 ! R8    R(3,16)                 1.4498         calculate D2E/DX2 analytically  !
 ! R9    R(3,26)                 1.0964         calculate D2E/DX2 analytically  !
 ! R10   R(3,27)                 1.0986         calculate D2E/DX2 analytically  !
 ! R11   R(4,5)                  1.5427         calculate D2E/DX2 analytically  !
 ! R12   R(4,9)                  1.5618         calculate D2E/DX2 analytically  !
 ! R13   R(4,28)                 1.0911         calculate D2E/DX2 analytically  !
 ! R14   R(5,6)                  1.5382         calculate D2E/DX2 analytically  !
 ! R15   R(5,29)                 1.0922         calculate D2E/DX2 analytically  !
 ! R16   R(5,30)                 1.0918         calculate D2E/DX2 analytically  !
 ! R17   R(6,7)                  1.5356         calculate D2E/DX2 analytically  !
 ! R18   R(6,31)                 1.0901         calculate D2E/DX2 analytically  !
 ! R19   R(6,32)                 1.0877         calculate D2E/DX2 analytically  !
 ! R20   R(7,8)                  1.5454         calculate D2E/DX2 analytically  !
 ! R21   R(7,33)                 1.0915         calculate D2E/DX2 analytically  !
 ! R22   R(7,34)                 1.0904         calculate D2E/DX2 analytically  !
 ! R23   R(8,9)                  1.5428         calculate D2E/DX2 analytically  !
 ! R24   R(8,35)                 1.0844         calculate D2E/DX2 analytically  !
 ! R25   R(8,36)                 1.0921         calculate D2E/DX2 analytically  !
 ! R26   R(9,37)                 1.0911         calculate D2E/DX2 analytically  !
 ! R27   R(9,38)                 1.092          calculate D2E/DX2 analytically  !
 ! R28   R(10,11)                1.4051         calculate D2E/DX2 analytically  !
 ! R29   R(10,24)                1.3954         calculate D2E/DX2 analytically  !
 ! R30   R(10,39)                1.0813         calculate D2E/DX2 analytically  !
 ! R31   R(11,12)                1.4012         calculate D2E/DX2 analytically  !
 ! R32   R(11,45)                1.5134         calculate D2E/DX2 analytically  !
 ! R33   R(12,13)                1.3927         calculate D2E/DX2 analytically  !
 ! R34   R(12,40)                1.0823         calculate D2E/DX2 analytically  !
 ! R35   R(13,23)                1.4012         calculate D2E/DX2 analytically  !
 ! R36   R(13,41)                1.0788         calculate D2E/DX2 analytically  !
 ! R37   R(14,15)                1.2922         calculate D2E/DX2 analytically  !
 ! R38   R(15,16)                1.3434         calculate D2E/DX2 analytically  !
 ! R39   R(15,17)                1.4506         calculate D2E/DX2 analytically  !
 ! R40   R(17,18)                1.4346         calculate D2E/DX2 analytically  !
 ! R41   R(17,20)                1.3394         calculate D2E/DX2 analytically  !
 ! R42   R(19,20)                1.2998         calculate D2E/DX2 analytically  !
 ! R43   R(19,42)                1.0224         calculate D2E/DX2 analytically  !
 ! R44   R(20,21)                1.4242         calculate D2E/DX2 analytically  !
 ! R45   R(22,23)                1.4076         calculate D2E/DX2 analytically  !
 ! R46   R(22,43)                1.0112         calculate D2E/DX2 analytically  !
 ! R47   R(23,24)                1.3912         calculate D2E/DX2 analytically  !
 ! R48   R(24,44)                1.0786         calculate D2E/DX2 analytically  !
 ! R49   R(45,46)                1.2283         calculate D2E/DX2 analytically  !
 ! R50   R(45,48)                1.3247         calculate D2E/DX2 analytically  !
 ! R51   R(47,48)                1.0043         calculate D2E/DX2 analytically  !
 ! R52   R(48,49)                1.0212         calculate D2E/DX2 analytically  !
 ! A1    A(14,1,21)            118.0237         calculate D2E/DX2 analytically  !
 ! A2    A(14,1,22)            129.5499         calculate D2E/DX2 analytically  !
 ! A3    A(21,1,22)            112.4195         calculate D2E/DX2 analytically  !
 ! A4    A(18,2,19)            111.4686         calculate D2E/DX2 analytically  !
 ! A5    A(18,2,25)            126.3224         calculate D2E/DX2 analytically  !
 ! A6    A(19,2,25)            122.1965         calculate D2E/DX2 analytically  !
 ! A7    A(4,3,16)             108.8423         calculate D2E/DX2 analytically  !
 ! A8    A(4,3,26)             109.5929         calculate D2E/DX2 analytically  !
 ! A9    A(4,3,27)             105.4848         calculate D2E/DX2 analytically  !
 ! A10   A(16,3,26)            108.2618         calculate D2E/DX2 analytically  !
 ! A11   A(16,3,27)            117.3875         calculate D2E/DX2 analytically  !
 ! A12   A(26,3,27)            107.0946         calculate D2E/DX2 analytically  !
 ! A13   A(3,4,5)              106.8132         calculate D2E/DX2 analytically  !
 ! A14   A(3,4,9)              108.7409         calculate D2E/DX2 analytically  !
 ! A15   A(3,4,28)             110.9167         calculate D2E/DX2 analytically  !
 ! A16   A(5,4,9)              113.059          calculate D2E/DX2 analytically  !
 ! A17   A(5,4,28)             108.2581         calculate D2E/DX2 analytically  !
 ! A18   A(9,4,28)             109.0551         calculate D2E/DX2 analytically  !
 ! A19   A(4,5,6)              113.7174         calculate D2E/DX2 analytically  !
 ! A20   A(4,5,29)             109.8518         calculate D2E/DX2 analytically  !
 ! A21   A(4,5,30)             110.4108         calculate D2E/DX2 analytically  !
 ! A22   A(6,5,29)             106.4009         calculate D2E/DX2 analytically  !
 ! A23   A(6,5,30)             110.0394         calculate D2E/DX2 analytically  !
 ! A24   A(29,5,30)            106.0685         calculate D2E/DX2 analytically  !
 ! A25   A(5,6,7)              115.6925         calculate D2E/DX2 analytically  !
 ! A26   A(5,6,31)             110.5129         calculate D2E/DX2 analytically  !
 ! A27   A(5,6,32)             106.9005         calculate D2E/DX2 analytically  !
 ! A28   A(7,6,31)             109.9325         calculate D2E/DX2 analytically  !
 ! A29   A(7,6,32)             107.1888         calculate D2E/DX2 analytically  !
 ! A30   A(31,6,32)            106.0749         calculate D2E/DX2 analytically  !
 ! A31   A(6,7,8)              111.6688         calculate D2E/DX2 analytically  !
 ! A32   A(6,7,33)             109.0426         calculate D2E/DX2 analytically  !
 ! A33   A(6,7,34)             110.4714         calculate D2E/DX2 analytically  !
 ! A34   A(8,7,33)             108.7686         calculate D2E/DX2 analytically  !
 ! A35   A(8,7,34)             110.4231         calculate D2E/DX2 analytically  !
 ! A36   A(33,7,34)            106.296          calculate D2E/DX2 analytically  !
 ! A37   A(7,8,9)              114.2214         calculate D2E/DX2 analytically  !
 ! A38   A(7,8,35)             109.8668         calculate D2E/DX2 analytically  !
 ! A39   A(7,8,36)             107.9358         calculate D2E/DX2 analytically  !
 ! A40   A(9,8,35)             112.0164         calculate D2E/DX2 analytically  !
 ! A41   A(9,8,36)             107.616          calculate D2E/DX2 analytically  !
 ! A42   A(35,8,36)            104.6261         calculate D2E/DX2 analytically  !
 ! A43   A(4,9,8)              114.1745         calculate D2E/DX2 analytically  !
 ! A44   A(4,9,37)             110.4349         calculate D2E/DX2 analytically  !
 ! A45   A(4,9,38)             110.5735         calculate D2E/DX2 analytically  !
 ! A46   A(8,9,37)             110.0986         calculate D2E/DX2 analytically  !
 ! A47   A(8,9,38)             105.3356         calculate D2E/DX2 analytically  !
 ! A48   A(37,9,38)            105.7868         calculate D2E/DX2 analytically  !
 ! A49   A(11,10,24)           120.9116         calculate D2E/DX2 analytically  !
 ! A50   A(11,10,39)           120.7383         calculate D2E/DX2 analytically  !
 ! A51   A(24,10,39)           118.3477         calculate D2E/DX2 analytically  !
 ! A52   A(10,11,12)           118.5515         calculate D2E/DX2 analytically  !
 ! A53   A(10,11,45)           119.7833         calculate D2E/DX2 analytically  !
 ! A54   A(12,11,45)           121.6623         calculate D2E/DX2 analytically  !
 ! A55   A(11,12,13)           120.0949         calculate D2E/DX2 analytically  !
 ! A56   A(11,12,40)           121.4952         calculate D2E/DX2 analytically  !
 ! A57   A(13,12,40)           118.41           calculate D2E/DX2 analytically  !
 ! A58   A(12,13,23)           121.2712         calculate D2E/DX2 analytically  !
 ! A59   A(12,13,41)           118.6196         calculate D2E/DX2 analytically  !
 ! A60   A(23,13,41)           120.0948         calculate D2E/DX2 analytically  !
 ! A61   A(1,14,15)            122.8931         calculate D2E/DX2 analytically  !
 ! A62   A(14,15,16)           120.4487         calculate D2E/DX2 analytically  !
 ! A63   A(14,15,17)           117.8516         calculate D2E/DX2 analytically  !
 ! A64   A(16,15,17)           121.696          calculate D2E/DX2 analytically  !
 ! A65   A(3,16,15)            103.9239         calculate D2E/DX2 analytically  !
 ! A66   A(15,17,18)           139.6791         calculate D2E/DX2 analytically  !
 ! A67   A(15,17,20)           119.4344         calculate D2E/DX2 analytically  !
 ! A68   A(18,17,20)           100.8835         calculate D2E/DX2 analytically  !
 ! A69   A(2,18,17)            108.3309         calculate D2E/DX2 analytically  !
 ! A70   A(2,19,20)            106.2584         calculate D2E/DX2 analytically  !
 ! A71   A(2,19,42)            123.8364         calculate D2E/DX2 analytically  !
 ! A72   A(20,19,42)           129.7628         calculate D2E/DX2 analytically  !
 ! A73   A(17,20,19)           113.056          calculate D2E/DX2 analytically  !
 ! A74   A(17,20,21)           119.7814         calculate D2E/DX2 analytically  !
 ! A75   A(19,20,21)           127.1419         calculate D2E/DX2 analytically  !
 ! A76   A(1,21,20)            121.9969         calculate D2E/DX2 analytically  !
 ! A77   A(1,22,23)            123.7439         calculate D2E/DX2 analytically  !
 ! A78   A(1,22,43)            116.3032         calculate D2E/DX2 analytically  !
 ! A79   A(23,22,43)           117.5292         calculate D2E/DX2 analytically  !
 ! A80   A(13,23,22)           121.6873         calculate D2E/DX2 analytically  !
 ! A81   A(13,23,24)           118.6549         calculate D2E/DX2 analytically  !
 ! A82   A(22,23,24)           119.6567         calculate D2E/DX2 analytically  !
 ! A83   A(10,24,23)           120.4745         calculate D2E/DX2 analytically  !
 ! A84   A(10,24,44)           119.6935         calculate D2E/DX2 analytically  !
 ! A85   A(23,24,44)           119.8309         calculate D2E/DX2 analytically  !
 ! A86   A(11,45,46)           121.8556         calculate D2E/DX2 analytically  !
 ! A87   A(11,45,48)           118.9633         calculate D2E/DX2 analytically  !
 ! A88   A(46,45,48)           119.0768         calculate D2E/DX2 analytically  !
 ! A89   A(45,48,47)           116.2413         calculate D2E/DX2 analytically  !
 ! A90   A(45,48,49)           122.8756         calculate D2E/DX2 analytically  !
 ! A91   A(47,48,49)           116.69           calculate D2E/DX2 analytically  !
 ! D1    D(21,1,14,15)          -0.3723         calculate D2E/DX2 analytically  !
 ! D2    D(22,1,14,15)         178.5919         calculate D2E/DX2 analytically  !
 ! D3    D(14,1,21,20)          -0.941          calculate D2E/DX2 analytically  !
 ! D4    D(22,1,21,20)         179.9229         calculate D2E/DX2 analytically  !
 ! D5    D(14,1,22,23)         -23.0994         calculate D2E/DX2 analytically  !
 ! D6    D(14,1,22,43)         175.0501         calculate D2E/DX2 analytically  !
 ! D7    D(21,1,22,23)         155.9115         calculate D2E/DX2 analytically  !
 ! D8    D(21,1,22,43)          -5.939          calculate D2E/DX2 analytically  !
 ! D9    D(19,2,18,17)           0.3509         calculate D2E/DX2 analytically  !
 ! D10   D(25,2,18,17)         179.0796         calculate D2E/DX2 analytically  !
 ! D11   D(18,2,19,20)          -0.0571         calculate D2E/DX2 analytically  !
 ! D12   D(18,2,19,42)         175.9787         calculate D2E/DX2 analytically  !
 ! D13   D(25,2,19,20)        -178.8468         calculate D2E/DX2 analytically  !
 ! D14   D(25,2,19,42)          -2.811          calculate D2E/DX2 analytically  !
 ! D15   D(16,3,4,5)           129.1727         calculate D2E/DX2 analytically  !
 ! D16   D(16,3,4,9)          -108.5107         calculate D2E/DX2 analytically  !
 ! D17   D(16,3,4,28)           11.4065         calculate D2E/DX2 analytically  !
 ! D18   D(26,3,4,5)            10.9489         calculate D2E/DX2 analytically  !
 ! D19   D(26,3,4,9)           133.2654         calculate D2E/DX2 analytically  !
 ! D20   D(26,3,4,28)         -106.8174         calculate D2E/DX2 analytically  !
 ! D21   D(27,3,4,5)          -104.036          calculate D2E/DX2 analytically  !
 ! D22   D(27,3,4,9)            18.2806         calculate D2E/DX2 analytically  !
 ! D23   D(27,3,4,28)          138.1978         calculate D2E/DX2 analytically  !
 ! D24   D(4,3,16,15)          163.4859         calculate D2E/DX2 analytically  !
 ! D25   D(26,3,16,15)         -77.4545         calculate D2E/DX2 analytically  !
 ! D26   D(27,3,16,15)          43.8488         calculate D2E/DX2 analytically  !
 ! D27   D(3,4,5,6)            164.9645         calculate D2E/DX2 analytically  !
 ! D28   D(3,4,5,29)            45.8532         calculate D2E/DX2 analytically  !
 ! D29   D(3,4,5,30)           -70.7837         calculate D2E/DX2 analytically  !
 ! D30   D(9,4,5,6)             45.3994         calculate D2E/DX2 analytically  !
 ! D31   D(9,4,5,29)           -73.7119         calculate D2E/DX2 analytically  !
 ! D32   D(9,4,5,30)           169.6512         calculate D2E/DX2 analytically  !
 ! D33   D(28,4,5,6)           -75.5363         calculate D2E/DX2 analytically  !
 ! D34   D(28,4,5,29)          165.3525         calculate D2E/DX2 analytically  !
 ! D35   D(28,4,5,30)           48.7155         calculate D2E/DX2 analytically  !
 ! D36   D(3,4,9,8)           -164.5526         calculate D2E/DX2 analytically  !
 ! D37   D(3,4,9,37)            70.7518         calculate D2E/DX2 analytically  !
 ! D38   D(3,4,9,38)           -45.9892         calculate D2E/DX2 analytically  !
 ! D39   D(5,4,9,8)            -46.1023         calculate D2E/DX2 analytically  !
 ! D40   D(5,4,9,37)          -170.7978         calculate D2E/DX2 analytically  !
 ! D41   D(5,4,9,38)            72.4611         calculate D2E/DX2 analytically  !
 ! D42   D(28,4,9,8)            74.3803         calculate D2E/DX2 analytically  !
 ! D43   D(28,4,9,37)          -50.3152         calculate D2E/DX2 analytically  !
 ! D44   D(28,4,9,38)         -167.0562         calculate D2E/DX2 analytically  !
 ! D45   D(4,5,6,7)            -48.1359         calculate D2E/DX2 analytically  !
 ! D46   D(4,5,6,31)          -173.8634         calculate D2E/DX2 analytically  !
 ! D47   D(4,5,6,32)            71.1339         calculate D2E/DX2 analytically  !
 ! D48   D(29,5,6,7)            72.9256         calculate D2E/DX2 analytically  !
 ! D49   D(29,5,6,31)          -52.8018         calculate D2E/DX2 analytically  !
 ! D50   D(29,5,6,32)         -167.8045         calculate D2E/DX2 analytically  !
 ! D51   D(30,5,6,7)          -172.588          calculate D2E/DX2 analytically  !
 ! D52   D(30,5,6,31)           61.6846         calculate D2E/DX2 analytically  !
 ! D53   D(30,5,6,32)          -53.3181         calculate D2E/DX2 analytically  !
 ! D54   D(5,6,7,8)             48.8375         calculate D2E/DX2 analytically  !
 ! D55   D(5,6,7,33)           -71.3873         calculate D2E/DX2 analytically  !
 ! D56   D(5,6,7,34)           172.1441         calculate D2E/DX2 analytically  !
 ! D57   D(31,6,7,8)           174.8605         calculate D2E/DX2 analytically  !
 ! D58   D(31,6,7,33)           54.6357         calculate D2E/DX2 analytically  !
 ! D59   D(31,6,7,34)          -61.8328         calculate D2E/DX2 analytically  !
 ! D60   D(32,6,7,8)           -70.2741         calculate D2E/DX2 analytically  !
 ! D61   D(32,6,7,33)          169.5011         calculate D2E/DX2 analytically  !
 ! D62   D(32,6,7,34)           53.0325         calculate D2E/DX2 analytically  !
 ! D63   D(6,7,8,9)            -48.5808         calculate D2E/DX2 analytically  !
 ! D64   D(6,7,8,35)          -175.4239         calculate D2E/DX2 analytically  !
 ! D65   D(6,7,8,36)            71.0503         calculate D2E/DX2 analytically  !
 ! D66   D(33,7,8,9)            71.8045         calculate D2E/DX2 analytically  !
 ! D67   D(33,7,8,35)          -55.0386         calculate D2E/DX2 analytically  !
 ! D68   D(33,7,8,36)         -168.5644         calculate D2E/DX2 analytically  !
 ! D69   D(34,7,8,9)          -171.9148         calculate D2E/DX2 analytically  !
 ! D70   D(34,7,8,35)           61.242          calculate D2E/DX2 analytically  !
 ! D71   D(34,7,8,36)          -52.2838         calculate D2E/DX2 analytically  !
 ! D72   D(7,8,9,4)             48.3294         calculate D2E/DX2 analytically  !
 ! D73   D(7,8,9,37)           173.2037         calculate D2E/DX2 analytically  !
 ! D74   D(7,8,9,38)           -73.1715         calculate D2E/DX2 analytically  !
 ! D75   D(35,8,9,4)           174.0518         calculate D2E/DX2 analytically  !
 ! D76   D(35,8,9,37)          -61.0739         calculate D2E/DX2 analytically  !
 ! D77   D(35,8,9,38)           52.5509         calculate D2E/DX2 analytically  !
 ! D78   D(36,8,9,4)           -71.4813         calculate D2E/DX2 analytically  !
 ! D79   D(36,8,9,37)           53.393          calculate D2E/DX2 analytically  !
 ! D80   D(36,8,9,38)          167.0179         calculate D2E/DX2 analytically  !
 ! D81   D(24,10,11,12)         -0.587          calculate D2E/DX2 analytically  !
 ! D82   D(24,10,11,45)       -179.9721         calculate D2E/DX2 analytically  !
 ! D83   D(39,10,11,12)        178.8354         calculate D2E/DX2 analytically  !
 ! D84   D(39,10,11,45)         -0.5498         calculate D2E/DX2 analytically  !
 ! D85   D(11,10,24,23)         -0.7451         calculate D2E/DX2 analytically  !
 ! D86   D(11,10,24,44)        179.6173         calculate D2E/DX2 analytically  !
 ! D87   D(39,10,24,23)        179.819          calculate D2E/DX2 analytically  !
 ! D88   D(39,10,24,44)          0.1814         calculate D2E/DX2 analytically  !
 ! D89   D(10,11,12,13)          0.4384         calculate D2E/DX2 analytically  !
 ! D90   D(10,11,12,40)       -179.6202         calculate D2E/DX2 analytically  !
 ! D91   D(45,11,12,13)        179.8115         calculate D2E/DX2 analytically  !
 ! D92   D(45,11,12,40)         -0.2472         calculate D2E/DX2 analytically  !
 ! D93   D(10,11,45,46)        -15.6304         calculate D2E/DX2 analytically  !
 ! D94   D(10,11,45,48)        160.6213         calculate D2E/DX2 analytically  !
 ! D95   D(12,11,45,46)        165.0041         calculate D2E/DX2 analytically  !
 ! D96   D(12,11,45,48)        -18.7442         calculate D2E/DX2 analytically  !
 ! D97   D(11,12,13,23)          1.04           calculate D2E/DX2 analytically  !
 ! D98   D(11,12,13,41)        179.6606         calculate D2E/DX2 analytically  !
 ! D99   D(40,12,13,23)       -178.9031         calculate D2E/DX2 analytically  !
 ! D100  D(40,12,13,41)         -0.2825         calculate D2E/DX2 analytically  !
 ! D101  D(12,13,23,22)        177.2851         calculate D2E/DX2 analytically  !
 ! D102  D(12,13,23,24)         -2.3456         calculate D2E/DX2 analytically  !
 ! D103  D(41,13,23,22)         -1.3154         calculate D2E/DX2 analytically  !
 ! D104  D(41,13,23,24)        179.0539         calculate D2E/DX2 analytically  !
 ! D105  D(1,14,15,16)        -179.5335         calculate D2E/DX2 analytically  !
 ! D106  D(1,14,15,17)           1.1588         calculate D2E/DX2 analytically  !
 ! D107  D(14,15,16,3)          18.2854         calculate D2E/DX2 analytically  !
 ! D108  D(17,15,16,3)        -162.4339         calculate D2E/DX2 analytically  !
 ! D109  D(14,15,17,18)       -179.8954         calculate D2E/DX2 analytically  !
 ! D110  D(14,15,17,20)         -0.6675         calculate D2E/DX2 analytically  !
 ! D111  D(16,15,17,18)          0.806          calculate D2E/DX2 analytically  !
 ! D112  D(16,15,17,20)       -179.9661         calculate D2E/DX2 analytically  !
 ! D113  D(15,17,18,2)         178.8317         calculate D2E/DX2 analytically  !
 ! D114  D(20,17,18,2)          -0.4835         calculate D2E/DX2 analytically  !
 ! D115  D(15,17,20,19)       -179.0241         calculate D2E/DX2 analytically  !
 ! D116  D(15,17,20,21)         -0.5623         calculate D2E/DX2 analytically  !
 ! D117  D(18,17,20,19)          0.4672         calculate D2E/DX2 analytically  !
 ! D118  D(18,17,20,21)        178.9289         calculate D2E/DX2 analytically  !
 ! D119  D(2,19,20,17)          -0.2906         calculate D2E/DX2 analytically  !
 ! D120  D(2,19,20,21)        -178.6158         calculate D2E/DX2 analytically  !
 ! D121  D(42,19,20,17)       -176.0064         calculate D2E/DX2 analytically  !
 ! D122  D(42,19,20,21)          5.6685         calculate D2E/DX2 analytically  !
 ! D123  D(17,20,21,1)           1.4077         calculate D2E/DX2 analytically  !
 ! D124  D(19,20,21,1)         179.6321         calculate D2E/DX2 analytically  !
 ! D125  D(1,22,23,13)         -30.3294         calculate D2E/DX2 analytically  !
 ! D126  D(1,22,23,24)         149.2977         calculate D2E/DX2 analytically  !
 ! D127  D(43,22,23,13)        131.3158         calculate D2E/DX2 analytically  !
 ! D128  D(43,22,23,24)        -49.0571         calculate D2E/DX2 analytically  !
 ! D129  D(13,23,24,10)          2.1815         calculate D2E/DX2 analytically  !
 ! D130  D(13,23,24,44)       -178.1814         calculate D2E/DX2 analytically  !
 ! D131  D(22,23,24,10)       -177.4569         calculate D2E/DX2 analytically  !
 ! D132  D(22,23,24,44)          2.1802         calculate D2E/DX2 analytically  !
 ! D133  D(11,45,48,47)       -175.1656         calculate D2E/DX2 analytically  !
 ! D134  D(11,45,48,49)         28.6466         calculate D2E/DX2 analytically  !
 ! D135  D(46,45,48,47)          1.1917         calculate D2E/DX2 analytically  !
 ! D136  D(46,45,48,49)       -154.9961         calculate D2E/DX2 analytically  !
 --------------------------------------------------------------------------------
 Trust Radius=3.00D-01 FncErr=1.00D-07 GrdErr=1.00D-07 EigMax=2.50D+02 EigMin=1.00D-04
 Number of steps in this run=    289 maximum allowed number of steps=    294.
 GradGradGradGradGradGradGradGradGradGradGradGradGradGradGradGradGradGrad

 Leave Link  103 at Thu Jan 30 14:39:57 2025, MaxMem=   104857600 cpu:               0.0 elap:               0.0
 (Enter /home/pb777/GAUSSIAN/g16/l202.exe)
                          Input orientation:                          
 ---------------------------------------------------------------------
 Center     Atomic      Atomic             Coordinates (Angstroms)
 Number     Number       Type             X           Y           Z
 ---------------------------------------------------------------------
      1          6           0        1.422000   29.034000    6.768000
      2          6           0       -1.450000   32.163000    8.008000
      3          6           0       -0.582000   26.625000    8.978000
      4          6           0       -1.250000   25.767000   10.081000
      5          6           0       -1.355000   24.331000    9.527000
      6          6           0       -1.653000   23.273000   10.603000
      7          6           0       -0.781000   23.343000   11.865000
      8          6           0       -0.712000   24.779000   12.432000
      9          6           0       -0.388000   25.860000   11.380000
     10          6           0        4.737000   25.789000    5.713000
     11          6           0        4.747000   25.223000    6.999000
     12          6           0        4.029000   25.863000    8.018000
     13          6           0        3.318000   27.029000    7.745000
     14          7           0        0.488000   28.180000    7.498000
     15          6           0       -0.568000   28.637000    8.086000
     16          8           0       -1.389000   27.808000    8.752000
     17          6           0       -0.837000   30.059000    7.987000
     18          7           0       -1.806000   31.022000    8.425000
     19          7           0       -0.337000   32.096000    7.318000
     20          6           0        0.012000   30.844000    7.311000
     21          7           0        1.172000   30.278000    6.709000
     22          7           0        2.523000   28.721000    6.157000
     23          6           0        3.284000   27.575000    6.455000
     24          6           0        4.019000   26.956000    5.449000
     25          1           0       -1.973000   33.085000    8.159000
     26          1           0       -0.540000   26.054000    8.043000
     27          1           0        0.454000   26.776000    9.311000
     28          1           0       -2.258000   26.125000   10.296000
     29          1           0       -0.409000   24.042000    9.064000
     30          1           0       -2.106000   24.282000    8.736000
     31          1           0       -1.609000   22.271000   10.176000
     32          1           0       -2.684000   23.422000   10.916000
     33          1           0        0.230000   23.014000   11.618000
     34          1           0       -1.151000   22.652000   12.623000
     35          1           0       -0.027000   24.811000   13.272000
     36          1           0       -1.687000   25.018000   12.862000
     37          1           0       -0.474000   26.853000   11.824000
     38          1           0        0.671000   25.729000   11.148000
     39          1           0        5.294000   25.335000    4.905000
     40          1           0        4.009000   25.472000    9.027000
     41          1           0        2.769000   27.499000    8.546000
     42          1           0        0.088000   32.896000    6.844000
     43          1           0        2.979000   29.465000    5.646000
     44          1           0        4.030000   27.377000    4.456000
     45          6           0        5.535000   23.957000    7.257000
     46          8           0        5.938000   23.246000    6.340000
     47          1           0        6.447000   22.840000    8.621000
     48          7           0        5.861000   23.647000    8.503000
     49          1           0        5.301000   23.929000    9.309000
 ---------------------------------------------------------------------
                    Distance matrix (angstroms):
                    1          2          3          4          5
     1  C    0.000000
     2  C    4.424548   0.000000
     3  C    3.834501   5.688916   0.000000
     4  C    5.365523   6.726525   1.548870   0.000000
     5  C    6.118988   7.978509   2.482210   1.542737   0.000000
     6  C    7.573108   9.263225   3.876025   2.579715   1.538163
     7  C    7.951107   9.649684   4.375602   3.046045   2.602281
     8  C    7.398640   8.639437   3.918511   2.606298   3.008850
     9  C    5.883954   7.226758   2.528332   1.561760   2.589699
    10  C    4.757339   9.174632   6.296895   7.411078   7.333814
    11  C    5.062875   9.358659   5.854937   6.764515   6.664897
    12  C    4.291176   8.349224   4.771118   5.668600   5.797548
    13  C    2.927349   7.011487   4.110171   5.283575   5.682575
    14  N    1.461017   4.458725   2.398609   3.938921   4.725282
    15  C    2.419676   3.635476   2.200910   3.561186   4.608415
    16  O    3.652541   4.418516   1.449763   2.439517   3.562486
    17  C    2.763995   2.191581   3.583220   4.793398   5.953983
    18  N    4.137364   1.265901   4.597564   5.537734   6.796123
    19  N    3.573853   1.311243   5.722540   6.965916   8.137028
    20  C    2.357764   2.088783   4.575116   5.919584   7.014165
    21  N    1.270243   3.480734   4.644275   6.130709   7.049373
    22  N    1.297494   5.572997   4.689593   6.193498   6.757802
    23  C    2.386146   6.772910   4.713171   6.080616   6.440578
    24  C    3.578024   7.973161   5.807978   7.115582   7.238825
    25  H    5.465483   1.070707   6.658622   7.600654   8.881771
    26  H    3.788861   6.176504   1.096371   2.177134   2.415618
    27  H    3.535879   5.860273   1.098629   2.124758   3.049125
    28  H    5.869537   6.507323   2.190000   1.091079   2.150629
    29  H    5.791739   8.255268   2.590215   2.171910   1.092157
    30  H    6.237092   7.941693   2.805493   2.178758   1.091826
    31  H    8.157181  10.128039   4.631117   3.515668   2.174699
    32  H    8.096893   9.294316   4.293420   2.872735   2.126463
    33  H    7.822005   9.977911   4.546236   3.483070   2.935812
    34  H    9.035003  10.575762   5.421671   4.021789   3.527871
    35  H    7.888938   9.153498   4.694364   3.548541   4.002375
    36  H    7.932904   8.641094   4.346140   2.913062   3.421172
    37  H    5.823634   6.611394   2.857160   2.195364   3.523188
    38  H    5.538179   7.466900   2.661151   2.197766   2.947324
    39  H    5.669723  10.086215   7.265040   8.354731   8.159663
    40  H    4.948080   8.695316   4.733824   5.371687   5.506757
    41  H    2.707751   6.312076   3.489943   4.637716   5.292066
    42  H    4.086609   2.063402   6.657950   7.942988   9.090653
    43  H    1.966950   5.698622   5.643452   7.157435   7.759103
    44  H    3.859101   8.096475   6.502656   7.881061   7.999461
    45  C    6.552238  10.802438   6.891861   7.568837   7.263944
    46  O    7.353801  11.699473   7.803018   8.486334   8.032561
    47  H    8.188399  12.233426   7.991277   8.363178   7.994693
    48  N    7.192685  11.234679   7.113815   7.586225   7.320320
    49  H    6.896691  10.726945   6.479789   6.847615   6.671691
                    6          7          8          9         10
     6  C    0.000000
     7  C    1.535555   0.000000
     8  C    2.549266   1.545427   0.000000
     9  C    2.982704   2.593253   1.542803   0.000000
    10  C    8.430567   8.618488   8.709573   7.641044   0.000000
    11  C    7.599429   7.600733   7.714616   6.779908   1.405081
    12  C    6.758361   6.654766   6.567765   5.550941   2.412419
    13  C    6.854673   6.882063   6.578098   5.321111   2.771315
    14  N    6.188987   6.639098   6.111559   4.606485   5.192023
    15  C    6.023704   6.507891   5.813142   4.312142   6.471882
    16  O    4.905316   5.476920   4.814101   3.420978   7.130200
    17  C    7.318409   7.755429   6.903046   5.417163   7.380613
    18  N    8.050720   8.476513   7.498529   6.114654   8.806252
    19  N    9.506230   9.873568   8.934882   7.442455   8.252257
    20  C    8.421967   8.810946   7.970762   6.446473   7.101567
    21  N    8.497875   8.859615   8.157278   6.615933   5.818278
    22  N    8.178423   8.510027   8.085803   6.628648   3.700751
    23  C    7.751585   7.981363   7.714283   6.378122   2.419002
    24  C    8.502928   8.789700   8.711141   7.469915   1.395388
    25  H   10.116861  10.491037   9.425406   8.067694  10.209732
    26  H    3.940346   4.692045   4.573678   3.346089   5.774587
    27  H    4.287158   4.453496   3.884354   2.414287   5.680129
    28  H    2.931583   3.518922   2.960461   2.177655   8.369397
    29  H    2.123068   2.910771   3.460983   2.944388   6.384554
    30  H    2.170018   3.525335   3.981289   3.525953   7.631266
    31  H    1.090078   2.165061   3.490589   3.977610   8.518592
    32  H    1.087718   2.127969   2.833459   3.380940   9.367238
    33  H    2.154761   1.091499   2.159904   2.922034   7.929861
    34  H    2.172106   1.090388   2.180214   3.523987   9.605072
    35  H    3.483229   2.168684   1.084366   2.193259   8.988363
    36  H    2.854691   2.149528   1.092083   2.143056   9.642117
    37  H    3.961980   3.523639   2.174347   1.091137   8.101292
    38  H    3.424900   2.883642   2.112781   1.092001   6.787870
    39  H    9.218452   9.450677   9.645564   8.630549   1.081309
    40  H    6.275159   5.960787   5.861921   5.002076   3.407795
    41  H    6.453248   6.394576   5.883601   4.548024   3.850067
    42  H   10.476798  10.827068   9.886932   8.384937   8.567486
    43  H    9.185213   9.502234   9.035036   7.563826   4.075295
    44  H    9.323353   9.711445   9.636013   8.352352   2.145144
    45  C    7.958072   7.842354   8.153608   7.463409   2.525265
    46  O    8.706158   8.699425   9.147953   8.500169   2.881385
    47  H    8.350198   7.938547   8.338748   7.965532   4.480755
    48  N    7.810894   7.450612   7.740981   7.226652   3.692647
    49  H    7.103724   6.623236   6.828748   6.354724   4.087654
                   11         12         13         14         15
    11  C    0.000000
    12  C    1.401244   0.000000
    13  C    2.420784   1.392697   0.000000
    14  N    5.208832   4.263516   3.065079   0.000000
    15  C    6.409851   5.369554   4.219353   1.292180   0.000000
    16  O    6.885182   5.803146   4.876140   2.287800   1.343443
    17  C    7.452791   6.425366   5.148154   2.350614   1.450602
    18  N    8.865872   7.799241   6.531602   3.768120   2.708466
    19  N    8.554937   7.642136   6.262255   4.006006   3.550756
    20  C    7.356168   6.437896   5.066776   2.712645   2.409953
    21  N    6.198205   5.419239   4.029220   2.343498   2.759821
    22  N    4.229792   3.728206   2.452883   2.496435   3.644500
    23  C    2.822802   2.434941   1.401204   3.044912   4.315774
    24  C    2.436344   2.791865   2.401738   4.261988   5.551585
    25  H   10.407451   9.391548   8.052404   5.527429   4.665196
    26  H    5.452785   4.573059   3.990438   2.423569   2.583510
    27  H    5.117324   3.909737   3.273967   2.293325   2.451210
    28  H    7.794475   6.692107   6.198112   4.426324   3.748379
    29  H    5.678320   4.909786   4.955044   4.514422   4.700616
    30  H    7.132059   6.375995   6.160184   4.843128   4.664115
    31  H    7.694567   7.024704   7.267988   6.818018   6.780689
    32  H    8.591056   7.708518   7.686982   6.662047   6.299411
    33  H    6.827747   5.958960   6.376213   6.612754   6.688046
    34  H    8.545515   7.638648   7.932526   7.714320   7.532893
    35  H    7.893754   6.720294   6.830540   6.704809   6.467268
    36  H    8.707075   7.539961   7.434907   6.595556   6.095859
    37  H    7.293584   5.978524   5.572116   4.626084   4.142962
    38  H    5.838152   4.592496   4.503001   4.400385   4.400844
    39  H    2.167162   3.401438   3.852248   6.157541   7.442111
    40  H    2.172425   1.082295   2.131960   4.697717   5.643725
    41  H    3.389081   2.131403   1.078843   2.600966   3.555589
    42  H    8.978042   8.146953   6.757691   4.777905   4.484638
    43  H    4.790720   4.438839   3.233391   3.359495   4.384107
    44  H    3.408908   3.870406   3.383130   4.737545   5.992170
    45  C    1.513362   2.545583   3.819740   6.585136   7.735389
    46  O    2.400269   3.648103   4.811394   7.442299   8.627829
    47  H    3.346576   3.917762   5.301485   8.080001   9.116011
    48  N    2.446791   2.915837   4.298760   7.101214   8.148990
    49  H    2.705079   2.650476   3.998548   6.672008   7.622739
                   16         17         18         19         20
    16  O    0.000000
    17  C    2.440682   0.000000
    18  N    3.257394   1.434634   0.000000
    19  N    4.642198   2.201574   2.129997   0.000000
    20  C    3.640958   1.339404   2.139580   1.299752   0.000000
    21  N    4.102861   2.391093   3.516628   2.439895   1.424205
    22  N    4.782399   4.053239   5.401728   4.573636   3.484819
    23  C    5.212238   5.049745   6.455293   5.856266   4.703731
    24  C    6.393917   6.296887   7.701919   6.991959   5.885545
    25  H    5.342231   3.236782   2.086771   2.088516   3.111496
    26  H    2.073644   4.016388   5.140983   6.088727   4.876949
    27  H    2.184984   3.767990   4.890921   5.735863   4.554557
    28  H    2.443683   4.777769   5.261706   6.943455   6.027610
    29  H    3.903908   6.127593   7.147050   8.241396   7.036864
    30  H    3.598197   5.961970   6.753838   8.136257   7.041051
    31  H    5.721411   8.126540   8.926635  10.311003   9.183256
    32  H    5.059340   7.486002   8.045866   9.679478   8.680468
    33  H    5.815286   7.997167   8.858251  10.064503   8.939053
    34  H    6.451792   8.743840   9.386646  10.862539   9.832537
    35  H    5.591731   7.491918   8.076805   9.413684   8.481281
    36  H    4.976445   7.063979   7.466535   9.091563   8.224505
    37  H    3.344613   5.013260   5.541479   6.914612   6.044125
    38  H    3.782414   5.569101   6.447178   7.498243   6.428069
    39  H    8.098001   8.330910   9.754095   9.123697   8.002340
    40  H    5.888202   6.753213   8.060963   8.104676   6.912239
    41  H    4.174552   4.457501   5.775534   5.682220   4.507250
    42  H    5.631140   3.195410   3.098173   1.022400   2.105842
    43  H    5.610019   4.516079   5.748331   4.551220   3.671097
    44  H    6.928704   6.583979   7.943418   7.037805   6.026229
    45  C    8.062692   8.852666  10.255181  10.036305   8.828206
    46  O    8.961837   9.748344  11.170628  10.892870   9.684520
    47  H    9.279067  10.274851  11.623061  11.549632  10.353229
    48  N    8.362919   9.286722  10.638590  10.545380   9.350319
    49  H    7.753257   8.774943  10.079760  10.121809   8.932119
                   21         22         23         24         25
    21  N    0.000000
    22  N    2.134046   0.000000
    23  C    3.439661   1.407566   0.000000
    24  C    4.552877   2.419608   1.391194   0.000000
    25  H    4.457889   6.577729   7.803830   8.989594   0.000000
    26  H    4.748966   4.477930   4.411141   5.322304   7.176483
    27  H    4.421531   4.243996   4.099273   5.258961   6.857180
    28  H    6.471389   6.835825   6.897068   7.974001   7.286261
    29  H    6.850787   6.240217   5.738224   6.416136   9.221766
    30  H    7.127835   6.912568   6.715572   7.447837   8.822892
    31  H    9.157844   8.650334   8.119095   8.715970  11.006515
    32  H    8.920332   8.822717   8.530238   9.343846  10.073735
    33  H    8.817672   8.224975   7.535662   8.243327  10.873957
    34  H    9.926107   9.598968   9.052590   9.834612  11.377630
    35  H    8.625466   8.509631   8.066840   9.064793   9.919111
    36  H    8.584922   8.740328   8.502867   9.553368   9.342189
    37  H    6.372061   6.677299   6.593179   7.799890   7.383566
    38  H    6.375666   6.106722   5.679765   6.722591   8.368727
    39  H    6.684201   4.550927   3.385292   2.132886  11.111269
    40  H    6.043122   4.582695   3.400503   3.873557   9.720880
    41  H    3.694295   2.694647   2.154828   3.383601   7.337556
    42  H    2.836760   4.881784   6.219226   7.258263   2.452074
    43  H    2.248597   1.011233   2.078366   2.723140   6.628867
    44  H    4.654028   2.640225   2.142830   1.078615   9.073559
    45  C    7.700072   5.742634   4.335912   3.815904  11.853441
    46  O    8.502937   6.455334   5.079093   4.270895  12.755336
    47  H    9.316932   7.487004   6.092319   5.735697  13.269132
    48  N    8.317170   6.510871   5.124882   4.865117  12.270523
    49  H    8.007399   6.373041   5.050438   5.070094  11.750145
                   26         27         28         29         30
    26  H    0.000000
    27  H    1.765544   0.000000
    28  H    2.834180   2.957866   0.000000
    29  H    2.260032   2.877592   3.045573   0.000000
    30  H    2.464262   3.619981   2.419370   1.744991   0.000000
    31  H    4.472532   5.029833   3.910104   2.411013   2.522842
    32  H    4.447279   4.865428   2.805724   2.998321   2.413728
    33  H    4.755536   4.418718   4.197160   2.826309   3.920541
    34  H    5.737885   5.527454   4.324593   3.892190   4.321770
    35  H    5.399135   4.447708   3.944684   4.294712   5.017706
    36  H    5.060797   4.503781   2.852340   4.124399   4.212022
    37  H    3.865064   2.679978   2.459151   3.939993   4.336958
    38  H    3.348607   2.125527   3.075998   2.890575   3.952630
    39  H    6.663300   6.701859   9.312340   7.175886   8.399129
    40  H    4.690456   3.797249   6.427446   4.643812   6.236506
    41  H    3.645616   2.543065   5.497373   4.724284   5.843870
    42  H    6.974593   6.608664   7.954022   9.141593   9.088140
    43  H    5.455629   5.199863   7.759141   7.250531   7.891059
    44  H    5.958339   6.059703   8.672488   7.215304   8.096167
    45  C    6.474630   6.162973   8.640983   6.213180   7.789605
    46  O    7.262889   7.166728   9.545313   6.952568   8.456953
    47  H    7.712461   7.203072   9.453776   6.974653   8.674468
    48  N    6.854054   6.299139   8.676030   6.307428   7.995662
    49  H    6.343159   5.621283   7.933162   5.716371   7.437512
                   31         32         33         34         35
    31  H    0.000000
    32  H    1.740122   0.000000
    33  H    2.452210   3.025006   0.000000
    34  H    2.518479   2.420090   1.745918   0.000000
    35  H    4.305757   3.813097   2.455804   2.519099   0.000000
    36  H    3.842745   2.707054   3.039480   2.437698   1.722367
    37  H    4.999885   4.180948   3.908449   4.329565   2.542888
    38  H    4.254521   4.078247   2.790449   3.868234   2.416879
    39  H    9.209937  10.170554   8.723274  10.406923   9.929467
    40  H    6.567231   7.250315   5.199604   6.892693   5.894594
    41  H    7.011117   7.209302   5.999911   7.448606   6.113758
    42  H   11.263776  10.678101  10.975662  11.826728  10.329551
    43  H    9.660449   9.816329   9.210710  10.590203   9.426114
    44  H    9.517771  10.121829   9.207063  10.764213  10.038200
    45  C    7.899360   9.012573   6.931854   8.671769   8.236831
    46  O    8.521897   9.762665   7.777684   9.491198   9.278096
    47  H    8.224410   9.432969   6.903867   8.589584   8.211536
    48  N    7.777738   8.882017   6.466226   8.193447   7.665951
    49  H    7.158823   8.160865   5.646569   7.364892   6.698573
                   36         37         38         39         40
    36  H    0.000000
    37  H    2.432291   0.000000
    38  H    3.000580   1.741085   0.000000
    39  H   10.590028   9.134917   7.778330   0.000000
    40  H    6.881697   5.461470   3.963197   4.319824   0.000000
    41  H    6.681254   4.656141   3.782183   4.931065   2.424395
    42  H   10.071238   7.850738   8.380346   9.382477   8.674993
    43  H    9.675641   7.544099   7.039642   4.792203   5.332552
    44  H   10.435986   8.651475   7.666919   2.443166   4.952121
    45  C    9.203208   8.084082   6.475983   2.736580   2.785103
    46  O   10.189067   9.175971   7.551387   2.614934   3.986990
    47  H    9.428241   8.617634   6.935000   4.622022   3.610555
    48  N    8.823425   7.838348   6.186020   4.014528   2.652377
    49  H    7.914662   6.944467   5.297058   4.622997   2.032151
                   41         42         43         44         45
    41  H    0.000000
    42  H    6.261962   0.000000
    43  H    3.509880   4.643797   0.000000
    44  H    4.281718   7.190359   2.623060   0.000000
    45  C    4.675258  10.475977   6.282239   4.669799   0.000000
    46  O    5.744302  11.295973   6.921942   4.924945   1.228340
    47  H    5.936294  12.029869   8.047874   6.616153   1.984925
    48  N    4.939658  11.028319   7.093483   5.800316   1.324723
    49  H    4.442757  10.661083   7.032535   6.087344   2.065489
                   46         47         48         49
    46  O    0.000000
    47  H    2.372104   0.000000
    48  N    2.201204   1.004275   0.000000
    49  H    3.112430   1.724117   1.021156   0.000000
 Stoichiometry    C19H22N6O2
 Framework group  C1[X(C19H22N6O2)]
 Deg. of freedom   141
 Full point group                 C1      NOp   1
 Largest Abelian subgroup         C1      NOp   1
 Largest concise Abelian subgroup C1      NOp   1
                         Standard orientation:                         
 ---------------------------------------------------------------------
 Center     Atomic      Atomic             Coordinates (Angstroms)
 Number     Number       Type             X           Y           Z
 ---------------------------------------------------------------------
      1          6           0        1.186743   -2.224596   -0.224861
      2          6           0        5.523705   -1.768117    0.522808
      3          6           0        1.055840    1.596519   -0.516986
      4          6           0        1.004839    3.136223   -0.356649
      5          6           0        0.005974    3.661563   -1.408469
      6          6           0       -0.447416    5.110518   -1.161663
      7          6           0       -0.894567    5.433204    0.271465
      8          6           0        0.130477    4.934526    1.314993
      9          6           0        0.584259    3.474441    1.108893
     10          6           0       -3.525089   -2.721736   -0.653547
     11          6           0       -3.823776   -1.578482    0.106720
     12          6           0       -2.779317   -0.928949    0.778061
     13          6           0       -1.477040   -1.412157    0.677123
     14          7           0        1.291259   -0.790258   -0.482392
     15          6           0        2.402974   -0.138908   -0.384607
     16          8           0        2.441122    1.182518   -0.623803
     17          6           0        3.595333   -0.883344   -0.026358
     18          7           0        4.994214   -0.663429    0.203731
     19          7           0        4.641504   -2.738163    0.532304
     20          6           0        3.505463   -2.200120    0.201735
     21          7           0        2.242456   -2.850708    0.102202
     22          7           0        0.144378   -2.996446   -0.259714
     23          6           0       -1.176259   -2.534233   -0.106363
     24          6           0       -2.216445   -3.196195   -0.750755
     25          1           0        6.558070   -1.935494    0.743008
     26          1           0        0.538254    1.305512   -1.438642
     27          1           0        0.471564    1.194720    0.322159
     28          1           0        1.980150    3.581457   -0.559105
     29          1           0       -0.898562    3.049572   -1.399124
     30          1           0        0.424845    3.566443   -2.412253
     31          1           0       -1.229507    5.391459   -1.867123
     32          1           0        0.403416    5.750419   -1.384694
     33          1           0       -1.854073    4.949284    0.462626
     34          1           0       -1.063855    6.504254    0.386093
     35          1           0       -0.250330    5.104407    2.315980
     36          1           0        1.016677    5.568953    1.245728
     37          1           0        1.390636    3.230957    1.802472
     38          1           0       -0.266182    2.861732    1.415168
     39          1           0       -4.306572   -3.261262   -1.170679
     40          1           0       -2.956446   -0.048301    1.381755
     41          1           0       -0.690325   -0.890393    1.199371
     42          1           0        4.874919   -3.718274    0.706086
     43          1           0        0.313082   -3.983804   -0.120946
     44          1           0       -2.010275   -4.079282   -1.334760
     45          6           0       -5.252229   -1.086571    0.195089
     46          8           0       -6.119254   -1.469476   -0.586237
     47          1           0       -6.564596   -0.036045    1.250560
     48          7           0       -5.591764   -0.277235    1.187351
     49          1           0       -4.930991    0.361504    1.632493
 ---------------------------------------------------------------------
 Rotational constants (GHZ):           0.1767324           0.1296035           0.0793073
 Leave Link  202 at Thu Jan 30 14:39:57 2025, MaxMem=   104857600 cpu:               0.0 elap:               0.0
 (Enter /home/pb777/GAUSSIAN/g16/l301.exe)
 Standard basis: 6-31G(d) (6D, 7F)
 Ernie: Thresh=  0.10000D-02 Tol=  0.10000D-05 Strict=F.
 There are   449 symmetry adapted cartesian basis functions of A   symmetry.
 There are   449 symmetry adapted basis functions of A   symmetry.
   449 basis functions,   844 primitive gaussians,   449 cartesian basis functions
    97 alpha electrons       97 beta electrons
       nuclear repulsion energy      2365.2608302020 Hartrees.
 IExCor=    0 DFT=F Ex=HF Corr=None ExCW=0 ScaHFX=  1.000000
 ScaDFX=  1.000000  1.000000  1.000000  1.000000 ScalE2=  1.000000  1.000000
 IRadAn=      5 IRanWt=     -1 IRanGd=            0 ICorTp=0 IEmpDi=  4
 NAtoms=   49 NActive=   49 NUniq=   49 SFac= 1.00D+00 NAtFMM=   60 NAOKFM=F Big=F
 Integral buffers will be    131072 words long.
 Raffenetti 1 integral format.
 Two-electron integral symmetry is turned on.
 Leave Link  301 at Thu Jan 30 14:39:57 2025, MaxMem=   104857600 cpu:               0.0 elap:               0.0
 (Enter /home/pb777/GAUSSIAN/g16/l302.exe)
 NPDir=0 NMtPBC=     1 NCelOv=     1 NCel=       1 NClECP=     1 NCelD=      1
         NCelK=      1 NCelE2=     1 NClLst=     1 CellRange=     0.0.
 One-electron integrals computed using PRISM.
 One-electron integral symmetry used in STVInt
 NBasis=   449 RedAO= T EigKep=  4.02D-04  NBF=   449
 NBsUse=   449 1.00D-06 EigRej= -1.00D+00 NBFU=   449
 Leave Link  302 at Thu Jan 30 14:39:57 2025, MaxMem=   104857600 cpu:               0.2 elap:               0.2
 (Enter /home/pb777/GAUSSIAN/g16/l303.exe)
 DipDrv:  MaxL=1.
 Leave Link  303 at Thu Jan 30 14:39:57 2025, MaxMem=   104857600 cpu:               0.0 elap:               0.0
 (Enter /home/pb777/GAUSSIAN/g16/l401.exe)
 ExpMin= 1.61D-01 ExpMax= 5.48D+03 ExpMxC= 8.25D+02 IAcc=3 IRadAn=         5 AccDes= 0.00D+00
 Harris functional with IExCor=  205 and IRadAn=       5 diagonalized for initial guess.
 HarFok:  IExCor=  205 AccDes= 0.00D+00 IRadAn=         5 IDoV= 1 UseB2=F ITyADJ=14
 ICtDFT=  3500011 ScaDFX=  1.000000  1.000000  1.000000  1.000000
 FoFCou: FMM=F IPFlag=           0 FMFlag=      100000 FMFlg1=           0
         NFxFlg=           0 DoJE=T BraDBF=F KetDBF=T FulRan=T
         wScrn=  0.000000 ICntrl=       500 IOpCl=  0 I1Cent=   200000004 NGrid=           0
         NMat0=    1 NMatS0=      1 NMatT0=    0 NMatD0=    1 NMtDS0=    0 NMtDT0=    0
 Petite list used in FoFCou.
 Harris En= -1210.17632266842    
 JPrj=0 DoOrth=F DoCkMO=F.
 Leave Link  401 at Thu Jan 30 14:40:05 2025, MaxMem=   104857600 cpu:               8.0 elap:               8.0
 (Enter /home/pb777/GAUSSIAN/g16/l502.exe)
 Integral symmetry usage will be decided dynamically.
 Closed shell SCF:
 Using DIIS extrapolation, IDIIS=  1040.
 NGot=   104857600 LenX=   104446718 LenY=   104244668
 Requested convergence on RMS density matrix=1.00D-08 within 128 cycles.
 Requested convergence on MAX density matrix=1.00D-06.
 Requested convergence on             energy=1.00D-06.
 No special actions if energy rises.
 Fock matrices will be formed incrementally for  20 cycles.
 Integral accuracy reduced to 1.0D-05 until final iterations.

 Cycle   1  Pass 0  IDiag  1:
 FoFJK:  IHMeth= 1 ICntrl=       0 DoSepK=F KAlg= 0 I1Cent=           0 FoldK=F
 IRaf= 670000000 NMat=       1 IRICut=       1 DoRegI=T DoRafI=F ISym2E= 0 IDoP0=0 IntGTp=1.
 FoFCou: FMM=F IPFlag=           0 FMFlag=      100000 FMFlg1=           0
         NFxFlg=           0 DoJE=F BraDBF=F KetDBF=F FulRan=T
         wScrn=  0.000000 ICntrl=         0 IOpCl=  0 I1Cent=           0 NGrid=           0
         NMat0=    1 NMatS0=      1 NMatT0=    0 NMatD0=    1 NMtDS0=    0 NMtDT0=    0
 Symmetry not used in FoFCou.
 E= -1207.66337248465    
 DIIS: error= 5.75D-02 at cycle   1 NSaved=   1.
 NSaved= 1 IEnMin= 1 EnMin= -1207.66337248465     IErMin= 1 ErrMin= 5.75D-02
 ErrMax= 5.75D-02  0.00D+00 EMaxC= 1.00D-01 BMatC= 1.74D+00 BMatP= 1.74D+00
 IDIUse=3 WtCom= 4.25D-01 WtEn= 5.75D-01
 Coeff-Com:  0.100D+01
 Coeff-En:   0.100D+01
 Coeff:      0.100D+01
 Gap=     0.413 Goal=   None    Shift=    0.000
 GapD=    0.413 DampG=2.000 DampE=0.500 DampFc=1.0000 IDamp=-1.
 RMSDP=3.61D-03 MaxDP=1.37D-01              OVMax= 1.34D-01

 Cycle   2  Pass 0  IDiag  1:
 RMSU=  3.51D-03    CP:  9.47D-01
 E= -1208.53062510103     Delta-E=       -0.867252616375 Rises=F Damp=F
 DIIS: error= 1.81D-02 at cycle   2 NSaved=   2.
 NSaved= 2 IEnMin= 2 EnMin= -1208.53062510103     IErMin= 2 ErrMin= 1.81D-02
 ErrMax= 1.81D-02  0.00D+00 EMaxC= 1.00D-01 BMatC= 1.79D-01 BMatP= 1.74D+00
 IDIUse=3 WtCom= 8.19D-01 WtEn= 1.81D-01
 Coeff-Com:  0.155D+00 0.845D+00
 Coeff-En:   0.000D+00 0.100D+01
 Coeff:      0.127D+00 0.873D+00
 Gap=     0.408 Goal=   None    Shift=    0.000
 RMSDP=1.29D-03 MaxDP=5.33D-02 DE=-8.67D-01 OVMax= 5.40D-02

 Cycle   3  Pass 0  IDiag  1:
 RMSU=  1.12D-03    CP:  9.54D-01  8.18D-01
 E= -1208.66273662382     Delta-E=       -0.132111522786 Rises=F Damp=F
 DIIS: error= 8.25D-03 at cycle   3 NSaved=   3.
 NSaved= 3 IEnMin= 3 EnMin= -1208.66273662382     IErMin= 3 ErrMin= 8.25D-03
 ErrMax= 8.25D-03  0.00D+00 EMaxC= 1.00D-01 BMatC= 2.38D-02 BMatP= 1.79D-01
 IDIUse=3 WtCom= 9.17D-01 WtEn= 8.25D-02
 Coeff-Com: -0.217D-01 0.236D+00 0.786D+00
 Coeff-En:   0.000D+00 0.000D+00 0.100D+01
 Coeff:     -0.199D-01 0.216D+00 0.804D+00
 Gap=     0.391 Goal=   None    Shift=    0.000
 RMSDP=3.45D-04 MaxDP=2.30D-02 DE=-1.32D-01 OVMax= 2.55D-02

 Cycle   4  Pass 0  IDiag  1:
 RMSU=  2.12D-04    CP:  9.51D-01  8.81D-01  8.63D-01
 E= -1208.68290895225     Delta-E=       -0.020172328433 Rises=F Damp=F
 DIIS: error= 2.18D-03 at cycle   4 NSaved=   4.
 NSaved= 4 IEnMin= 4 EnMin= -1208.68290895225     IErMin= 4 ErrMin= 2.18D-03
 ErrMax= 2.18D-03  0.00D+00 EMaxC= 1.00D-01 BMatC= 1.18D-03 BMatP= 2.38D-02
 IDIUse=3 WtCom= 9.78D-01 WtEn= 2.18D-02
 Coeff-Com: -0.922D-02 0.381D-01 0.235D+00 0.736D+00
 Coeff-En:   0.000D+00 0.000D+00 0.000D+00 0.100D+01
 Coeff:     -0.902D-02 0.372D-01 0.230D+00 0.742D+00
 Gap=     0.392 Goal=   None    Shift=    0.000
 RMSDP=9.43D-05 MaxDP=5.21D-03 DE=-2.02D-02 OVMax= 6.12D-03

 Cycle   5  Pass 0  IDiag  1:
 RMSU=  7.08D-05    CP:  9.51D-01  8.80D-01  9.14D-01  8.91D-01
 E= -1208.68398853973     Delta-E=       -0.001079587479 Rises=F Damp=F
 DIIS: error= 5.94D-04 at cycle   5 NSaved=   5.
 NSaved= 5 IEnMin= 5 EnMin= -1208.68398853973     IErMin= 5 ErrMin= 5.94D-04
 ErrMax= 5.94D-04  0.00D+00 EMaxC= 1.00D-01 BMatC= 8.43D-05 BMatP= 1.18D-03
 IDIUse=3 WtCom= 9.94D-01 WtEn= 5.94D-03
 Coeff-Com:  0.120D-02-0.193D-01-0.579D-01 0.699D-01 0.101D+01
 Coeff-En:   0.000D+00 0.000D+00 0.000D+00 0.000D+00 0.100D+01
 Coeff:      0.119D-02-0.191D-01-0.575D-01 0.695D-01 0.101D+01
 Gap=     0.393 Goal=   None    Shift=    0.000
 RMSDP=3.85D-05 MaxDP=1.70D-03 DE=-1.08D-03 OVMax= 4.59D-03

 Cycle   6  Pass 0  IDiag  1:
 RMSU=  2.36D-05    CP:  9.51D-01  8.81D-01  9.31D-01  9.94D-01  1.13D+00
 E= -1208.68415639306     Delta-E=       -0.000167853337 Rises=F Damp=F
 DIIS: error= 2.25D-04 at cycle   6 NSaved=   6.
 NSaved= 6 IEnMin= 6 EnMin= -1208.68415639306     IErMin= 6 ErrMin= 2.25D-04
 ErrMax= 2.25D-04  0.00D+00 EMaxC= 1.00D-01 BMatC= 1.48D-05 BMatP= 8.43D-05
 IDIUse=3 WtCom= 9.98D-01 WtEn= 2.25D-03
 Coeff-Com:  0.128D-02-0.863D-02-0.395D-01-0.871D-01 0.218D+00 0.916D+00
 Coeff-En:   0.000D+00 0.000D+00 0.000D+00 0.000D+00 0.000D+00 0.100D+01
 Coeff:      0.128D-02-0.862D-02-0.394D-01-0.869D-01 0.217D+00 0.916D+00
 Gap=     0.393 Goal=   None    Shift=    0.000
 RMSDP=1.74D-05 MaxDP=7.00D-04 DE=-1.68D-04 OVMax= 1.26D-03

 Cycle   7  Pass 0  IDiag  1:
 RMSU=  8.47D-06    CP:  9.51D-01  8.80D-01  9.36D-01  1.02D+00  1.31D+00
                    CP:  1.09D+00
 E= -1208.68418604434     Delta-E=       -0.000029651274 Rises=F Damp=F
 DIIS: error= 5.39D-05 at cycle   7 NSaved=   7.
 NSaved= 7 IEnMin= 7 EnMin= -1208.68418604434     IErMin= 7 ErrMin= 5.39D-05
 ErrMax= 5.39D-05  0.00D+00 EMaxC= 1.00D-01 BMatC= 1.65D-06 BMatP= 1.48D-05
 IDIUse=1 WtCom= 1.00D+00 WtEn= 0.00D+00
 Coeff-Com: -0.799D-04 0.202D-02 0.581D-02-0.203D-01-0.992D-01 0.927D-02
 Coeff-Com:  0.110D+01
 Coeff:     -0.799D-04 0.202D-02 0.581D-02-0.203D-01-0.992D-01 0.927D-02
 Coeff:      0.110D+01
 Gap=     0.393 Goal=   None    Shift=    0.000
 RMSDP=7.18D-06 MaxDP=2.80D-04 DE=-2.97D-05 OVMax= 8.35D-04

 Initial convergence to 1.0D-05 achieved.  Increase integral accuracy.
 Cycle   8  Pass 1  IDiag  1:
 E= -1208.68419464751     Delta-E=       -0.000008603170 Rises=F Damp=F
 DIIS: error= 6.29D-05 at cycle   1 NSaved=   1.
 NSaved= 1 IEnMin= 1 EnMin= -1208.68419464751     IErMin= 1 ErrMin= 6.29D-05
 ErrMax= 6.29D-05  0.00D+00 EMaxC= 1.00D-01 BMatC= 1.49D-06 BMatP= 1.49D-06
 IDIUse=1 WtCom= 1.00D+00 WtEn= 0.00D+00
 Coeff-Com:  0.100D+01
 Coeff:      0.100D+01
 Gap=     0.393 Goal=   None    Shift=    0.000
 RMSDP=7.18D-06 MaxDP=2.80D-04 DE=-8.60D-06 OVMax= 2.04D-04

 Cycle   9  Pass 1  IDiag  1:
 RMSU=  2.54D-05    CP:  1.00D+00
 E= -1208.68419613585     Delta-E=       -0.000001488344 Rises=F Damp=F
 DIIS: error= 1.74D-05 at cycle   2 NSaved=   2.
 NSaved= 2 IEnMin= 2 EnMin= -1208.68419613585     IErMin= 2 ErrMin= 1.74D-05
 ErrMax= 1.74D-05  0.00D+00 EMaxC= 1.00D-01 BMatC= 1.12D-07 BMatP= 1.49D-06
 IDIUse=1 WtCom= 1.00D+00 WtEn= 0.00D+00
 Coeff-Com:  0.385D-01 0.961D+00
 Coeff:      0.385D-01 0.961D+00
 Gap=     0.393 Goal=   None    Shift=    0.000
 RMSDP=1.69D-06 MaxDP=6.41D-05 DE=-1.49D-06 OVMax= 1.56D-04

 Cycle  10  Pass 1  IDiag  1:
 RMSU=  1.25D-06    CP:  1.00D+00  1.04D+00
 E= -1208.68419635063     Delta-E=       -0.000000214775 Rises=F Damp=F
 DIIS: error= 1.18D-05 at cycle   3 NSaved=   3.
 NSaved= 3 IEnMin= 3 EnMin= -1208.68419635063     IErMin= 3 ErrMin= 1.18D-05
 ErrMax= 1.18D-05  0.00D+00 EMaxC= 1.00D-01 BMatC= 5.57D-08 BMatP= 1.12D-07
 IDIUse=1 WtCom= 1.00D+00 WtEn= 0.00D+00
 Coeff-Com: -0.494D-01 0.350D+00 0.699D+00
 Coeff:     -0.494D-01 0.350D+00 0.699D+00
 Gap=     0.394 Goal=   None    Shift=    0.000
 RMSDP=7.11D-07 MaxDP=3.30D-05 DE=-2.15D-07 OVMax= 6.46D-05

 Cycle  11  Pass 1  IDiag  1:
 RMSU=  6.76D-07    CP:  1.00D+00  1.05D+00  1.06D+00
 E= -1208.68419643961     Delta-E=       -0.000000088987 Rises=F Damp=F
 DIIS: error= 5.75D-06 at cycle   4 NSaved=   4.
 NSaved= 4 IEnMin= 4 EnMin= -1208.68419643961     IErMin= 4 ErrMin= 5.75D-06
 ErrMax= 5.75D-06  0.00D+00 EMaxC= 1.00D-01 BMatC= 9.40D-09 BMatP= 5.57D-08
 IDIUse=1 WtCom= 1.00D+00 WtEn= 0.00D+00
 Coeff-Com:  0.142D-01-0.437D+00-0.425D+00 0.185D+01
 Coeff:      0.142D-01-0.437D+00-0.425D+00 0.185D+01
 Gap=     0.394 Goal=   None    Shift=    0.000
 RMSDP=9.08D-07 MaxDP=5.00D-05 DE=-8.90D-08 OVMax= 1.22D-04

 Cycle  12  Pass 1  IDiag  1:
 RMSU=  2.54D-07    CP:  1.00D+00  1.06D+00  1.54D+00  1.93D+00
 E= -1208.68419649459     Delta-E=       -0.000000054979 Rises=F Damp=F
 DIIS: error= 1.71D-06 at cycle   5 NSaved=   5.
 NSaved= 5 IEnMin= 5 EnMin= -1208.68419649459     IErMin= 5 ErrMin= 1.71D-06
 ErrMax= 1.71D-06  0.00D+00 EMaxC= 1.00D-01 BMatC= 9.99D-10 BMatP= 9.40D-09
 IDIUse=1 WtCom= 1.00D+00 WtEn= 0.00D+00
 Coeff-Com:  0.861D-02-0.175D+00-0.212D+00 0.594D+00 0.784D+00
 Coeff:      0.861D-02-0.175D+00-0.212D+00 0.594D+00 0.784D+00
 Gap=     0.394 Goal=   None    Shift=    0.000
 RMSDP=1.74D-07 MaxDP=8.15D-06 DE=-5.50D-08 OVMax= 2.41D-05

 Cycle  13  Pass 1  IDiag  1:
 RMSU=  7.31D-08    CP:  1.00D+00  1.06D+00  1.61D+00  2.11D+00  1.16D+00
 E= -1208.68419649705     Delta-E=       -0.000000002459 Rises=F Damp=F
 DIIS: error= 4.11D-07 at cycle   6 NSaved=   6.
 NSaved= 6 IEnMin= 6 EnMin= -1208.68419649705     IErMin= 6 ErrMin= 4.11D-07
 ErrMax= 4.11D-07  0.00D+00 EMaxC= 1.00D-01 BMatC= 1.14D-10 BMatP= 9.99D-10
 IDIUse=1 WtCom= 1.00D+00 WtEn= 0.00D+00
 Coeff-Com: -0.334D-02 0.951D-01 0.915D-01-0.369D+00-0.597D-01 0.125D+01
 Coeff:     -0.334D-02 0.951D-01 0.915D-01-0.369D+00-0.597D-01 0.125D+01
 Gap=     0.394 Goal=   None    Shift=    0.000
 RMSDP=6.89D-08 MaxDP=2.89D-06 DE=-2.46D-09 OVMax= 1.03D-05

 Cycle  14  Pass 1  IDiag  1:
 RMSU=  4.22D-08    CP:  1.00D+00  1.05D+00  1.62D+00  2.14D+00  1.33D+00
                    CP:  1.31D+00
 E= -1208.68419649747     Delta-E=       -0.000000000420 Rises=F Damp=F
 DIIS: error= 1.84D-07 at cycle   7 NSaved=   7.
 NSaved= 7 IEnMin= 7 EnMin= -1208.68419649747     IErMin= 7 ErrMin= 1.84D-07
 ErrMax= 1.84D-07  0.00D+00 EMaxC= 1.00D-01 BMatC= 1.57D-11 BMatP= 1.14D-10
 IDIUse=1 WtCom= 1.00D+00 WtEn= 0.00D+00
 Coeff-Com: -0.180D-02 0.406D-01 0.447D-01-0.145D+00-0.106D+00 0.154D+00
 Coeff-Com:  0.101D+01
 Coeff:     -0.180D-02 0.406D-01 0.447D-01-0.145D+00-0.106D+00 0.154D+00
 Coeff:      0.101D+01
 Gap=     0.394 Goal=   None    Shift=    0.000
 RMSDP=2.52D-08 MaxDP=1.47D-06 DE=-4.20D-10 OVMax= 4.31D-06

 Cycle  15  Pass 1  IDiag  1:
 RMSU=  1.20D-08    CP:  1.00D+00  1.05D+00  1.62D+00  2.15D+00  1.36D+00
                    CP:  1.45D+00  1.38D+00
 E= -1208.68419649752     Delta-E=       -0.000000000048 Rises=F Damp=F
 DIIS: error= 7.93D-08 at cycle   8 NSaved=   8.
 NSaved= 8 IEnMin= 8 EnMin= -1208.68419649752     IErMin= 8 ErrMin= 7.93D-08
 ErrMax= 7.93D-08  0.00D+00 EMaxC= 1.00D-01 BMatC= 3.50D-12 BMatP= 1.57D-11
 IDIUse=1 WtCom= 1.00D+00 WtEn= 0.00D+00
 Coeff-Com:  0.478D-03-0.144D-01-0.136D-01 0.549D-01 0.111D-01-0.250D+00
 Coeff-Com:  0.142D+00 0.107D+01
 Coeff:      0.478D-03-0.144D-01-0.136D-01 0.549D-01 0.111D-01-0.250D+00
 Coeff:      0.142D+00 0.107D+01
 Gap=     0.394 Goal=   None    Shift=    0.000
 RMSDP=1.29D-08 MaxDP=6.22D-07 DE=-4.82D-11 OVMax= 1.70D-06

 Cycle  16  Pass 1  IDiag  1:
 RMSU=  5.14D-09    CP:  1.00D+00  1.05D+00  1.62D+00  2.15D+00  1.37D+00
                    CP:  1.48D+00  1.63D+00  1.17D+00
 E= -1208.68419649751     Delta-E=        0.000000000009 Rises=F Damp=F
 DIIS: error= 3.09D-08 at cycle   9 NSaved=   9.
 NSaved= 9 IEnMin= 8 EnMin= -1208.68419649752     IErMin= 9 ErrMin= 3.09D-08
 ErrMax= 3.09D-08  0.00D+00 EMaxC= 1.00D-01 BMatC= 3.58D-13 BMatP= 3.50D-12
 IDIUse=1 WtCom= 1.00D+00 WtEn= 0.00D+00
 Coeff-Com:  0.293D-03-0.728D-02-0.731D-02 0.263D-01 0.166D-01-0.709D-01
 Coeff-Com: -0.740D-01 0.164D+00 0.953D+00
 Coeff:      0.293D-03-0.728D-02-0.731D-02 0.263D-01 0.166D-01-0.709D-01
 Coeff:     -0.740D-01 0.164D+00 0.953D+00
 Gap=     0.394 Goal=   None    Shift=    0.000
 RMSDP=3.44D-09 MaxDP=1.67D-07 DE= 8.64D-12 OVMax= 4.20D-07

 SCF Done:  E(RHF) =  -1208.68419650     A.U. after   16 cycles
            NFock= 16  Conv=0.34D-08     -V/T= 2.0016
 KE= 1.206759685859D+03 PE=-7.555860728952D+03 EE= 2.775156016393D+03
 Leave Link  502 at Thu Jan 30 14:41:58 2025, MaxMem=   104857600 cpu:             111.6 elap:             112.5
 (Enter /home/pb777/GAUSSIAN/g16/l801.exe)
 Range of M.O.s used for correlation:     1   449
 NBasis=   449 NAE=    97 NBE=    97 NFC=     0 NFV=     0
 NROrb=    449 NOA=    97 NOB=    97 NVA=   352 NVB=   352
 Leave Link  801 at Thu Jan 30 14:41:58 2025, MaxMem=   104857600 cpu:               0.0 elap:               0.0
 (Enter /home/pb777/GAUSSIAN/g16/l1101.exe)
 Using compressed storage, NAtomX=    49.
 Will process     50 centers per pass.
 Leave Link 1101 at Thu Jan 30 14:41:58 2025, MaxMem=   104857600 cpu:               0.4 elap:               0.4
 (Enter /home/pb777/GAUSSIAN/g16/l1102.exe)
 Symmetrizing basis deriv contribution to polar:
 IMax=3 JMax=2 DiffMx= 0.00D+00
 Leave Link 1102 at Thu Jan 30 14:41:58 2025, MaxMem=   104857600 cpu:               0.1 elap:               0.0
 (Enter /home/pb777/GAUSSIAN/g16/l1110.exe)
 Forming Gx(P) for the SCF density, NAtomX=    49.
 Integral derivatives from FoFJK, PRISM(SPDF).
 Do as many integral derivatives as possible in FoFJK.
 G2DrvN: MDV=     104853936.
 G2DrvN: will do    50 centers at a time, making    1 passes.
 Calling FoFCou, ICntrl=  3107 FMM=F I1Cent=   0 AccDes= 0.00D+00.
 FoFJK:  IHMeth= 1 ICntrl=    3107 DoSepK=F KAlg= 0 I1Cent=           0 FoldK=F
 IRaf=         0 NMat=       1 IRICut=       1 DoRegI=T DoRafI=F ISym2E= 0 IDoP0=0 IntGTp=1.
 FoFCou: FMM=F IPFlag=           0 FMFlag=      100000 FMFlg1=           0
         NFxFlg=           0 DoJE=F BraDBF=F KetDBF=F FulRan=T
         wScrn=  0.000000 ICntrl=      3107 IOpCl=  0 I1Cent=           0 NGrid=           0
         NMat0=    1 NMatS0=      1 NMatT0=    0 NMatD0=    1 NMtDS0=    0 NMtDT0=    0
 Symmetry not used in FoFCou.
 End of G2Drv F.D. properties file   721 does not exist.
 End of G2Drv F.D. properties file   722 does not exist.
 End of G2Drv F.D. properties file   788 does not exist.
 Leave Link 1110 at Thu Jan 30 14:43:44 2025, MaxMem=   104857600 cpu:             105.4 elap:             105.9
 (Enter /home/pb777/GAUSSIAN/g16/l1002.exe)
 Minotr:  Closed shell wavefunction.
          IDoAtm=1111111111111111111111111111111111111111111111111
          Direct CPHF calculation.
          Differentiating once with respect to nuclear coordinates.
          Requested convergence is 1.0D-08 RMS, and 1.0D-07 maximum.
          Secondary convergence is 1.0D-12 RMS, and 1.0D-12 maximum.
          NewPWx=T KeepS1=F KeepF1=F KeepIn=T MapXYZ=F SortEE=F KeepMc=T.
 Two-electron integrals replicated using symmetry.
          MDV=     104857600 using IRadAn=       1.
          Solving linear equations simultaneously, MaxMat=     384.
 FoF2E skips out because all densities are zero.
 FoFJK:  IHMeth= 1 ICntrl=       0 DoSepK=F KAlg= 0 I1Cent=           0 FoldK=F
 IRaf= 630000000 NMat=     147 IRICut=     367 DoRegI=T DoRafI=T ISym2E= 2 IDoP0=0 IntGTp=1.
 FoFCou: FMM=F IPFlag=           0 FMFlag=      100000 FMFlg1=           0
         NFxFlg=           0 DoJE=F BraDBF=F KetDBF=F FulRan=T
         wScrn=  0.000000 ICntrl=         0 IOpCl=  0 I1Cent=           0 NGrid=           0
         NMat0=  147 NMatS0=    147 NMatT0=    0 NMatD0=  147 NMtDS0=    0 NMtDT0=    0
[...]
 1311 Fit       0.001815
 1312 Fit      -0.001818
 1313 Fit       0.006464
 1314 Fit       0.007009
 1315 Fit       0.003318
 1316 Fit      -0.001544
 1317 Fit      -0.016782
 1318 Fit      -0.028557
 1319 Fit      -0.011447
 1320 Fit      -0.002534
 1321 Fit      -0.017113
 1322 Fit      -0.004809
 1323 Fit       0.003218
 1324 Fit      -0.008714
 1325 Fit      -0.000119
 1326 Fit      -0.015832
 1327 Fit      -0.005102
 1328 Fit       0.006119
 1329 Fit      -0.003013
 1330 Fit       0.014045
 1331 Fit       0.013414
 1332 Fit       0.005074
 1333 Fit       0.018401
 1334 Fit       0.019443
 1335 Fit       0.018304
 1336 Fit       0.017368
 1337 Fit       0.022177
 1338 Fit       0.016399
 1339 Fit       0.028019
 1340 Fit       0.034071
 1341 Fit       0.022176
 1342 Fit       0.030972
 1343 Fit       0.035805
 1344 Fit       0.038942
 1345 Fit       0.026323
 1346 Fit       0.033901
 1347 Fit       0.036895
 1348 Fit       0.036625
 1349 Fit       0.018307
 1350 Fit       0.030065
 1351 Fit       0.031753
 1352 Fit       0.023080
 1353 Fit       0.002980
 1354 Fit       0.015021
 1355 Fit       0.003117
 1356 Fit       0.018084
 1357 Fit       0.004998
 1358 Fit       0.019801
 1359 Fit       0.009273
 1360 Fit       0.013809
 1361 Fit      -0.000479
 1362 Fit       0.007794
 1363 Fit       0.005021
 1364 Fit       0.010440
 1365 Fit       0.018108
 1366 Fit       0.006692
 1367 Fit       0.009103
 1368 Fit       0.013675
 1369 Fit       0.019481
 1370 Fit       0.006544
 1371 Fit       0.010829
 1372 Fit       0.012513
 1373 Fit       0.004869
 1374 Fit       0.005394
 1375 Fit      -0.021433
 1376 Fit      -0.018395
 1377 Fit      -0.031089
 1378 Fit       0.002810
 1379 Fit      -0.006588
 1380 Fit      -0.007197
 1381 Fit      -0.017662
 1382 Fit      -0.034568
 1383 Fit      -0.032072
 1384 Fit      -0.040907
 1385 Fit      -0.040666
 1386 Fit      -0.036506
 1387 Fit      -0.035993
 1388 Fit      -0.043903
 1389 Fit      -0.043546
 1390 Fit      -0.039746
 1391 Fit      -0.030103
 1392 Fit      -0.040779
 1393 Fit      -0.044170
 1394 Fit      -0.043045
 1395 Fit      -0.036906
 1396 Fit      -0.033336
 1397 Fit      -0.041850
 1398 Fit      -0.042101
 1399 Fit      -0.039286
 1400 Fit      -0.016443
 1401 Fit      -0.030590
 1402 Fit      -0.039646
 1403 Fit      -0.037574
 1404 Fit      -0.031180
 1405 Fit      -0.023333
 1406 Fit      -0.033323
 1407 Fit      -0.030055
 1408 Fit      -0.013727
 1409 Fit       0.014519
 1410 Fit       0.010544
 1411 Fit       0.002101
 1412 Fit       0.020565
 1413 Fit       0.017198
 1414 Fit       0.011802
 1415 Fit       0.000976
 1416 Fit       0.017292
 1417 Fit       0.012526
 1418 Fit       0.001338
 1419 Fit       0.004979
 1420 Fit      -0.012425
 1421 Fit      -0.018102
 1422 Fit      -0.016678
 1423 Fit       0.000875
 1424 Fit      -0.003874
 1425 Fit      -0.011163
 1426 Fit      -0.020836
 1427 Fit       0.009917
 1428 Fit       0.003565
 1429 Fit      -0.001665
 1430 Fit      -0.010309
 1431 Fit       0.014879
 1432 Fit       0.022459
 1433 Fit       0.020848
 1434 Fit       0.008989
 1435 Fit       0.014997
 1436 Fit       0.013244
 1437 Fit       0.003796
 1438 Fit       0.004121
 1439 Fit      -0.002520
 1440 Fit       0.028232
 1441 Fit       0.024056
 1442 Fit       0.027757
 1443 Fit       0.026884
 1444 Fit       0.024917
 1445 Fit       0.017594
 1446 Fit       0.023491
 1447 Fit       0.023756
 1448 Fit       0.015124
 1449 Fit      -0.004909
 1450 Fit      -0.002853
 1451 Fit      -0.003803
 1452 Fit      -0.004421
 1453 Fit      -0.004674
 1454 Fit       0.000118
 1455 Fit       0.005342
 1456 Fit       0.007899
 1457 Fit      -0.004745
 1458 Fit       0.014783
 1459 Fit       0.025689
 1460 Fit      -0.004406
 1461 Fit       0.010567
 1462 Fit      -0.000318
 1463 Fit       0.021988
 1464 Fit       0.012124
 1465 Fit       0.002790
 1466 Fit      -0.003537
 1467 Fit       0.008023
 1468 Fit       0.009194
 1469 Fit       0.014579
 1470 Fit       0.002998
 1471 Fit       0.002424
 1472 Fit       0.005302
 1473 Fit       0.000653
 1474 Fit       0.001218
 1475 Fit       0.000581
 1476 Fit       0.001000
 1477 Fit       0.001994
 1478 Fit       0.000415
 1479 Fit      -0.001563
 1480 Fit      -0.000139
 1481 Fit      -0.004913
 1482 Fit      -0.007311
 1483 Fit      -0.002155
 1484 Fit      -0.002644
 1485 Fit      -0.005323
 1486 Fit      -0.007411
 1487 Fit      -0.020157
 1488 Fit      -0.026037
 1489 Fit      -0.019582
 1490 Fit      -0.019549
 1491 Fit      -0.013609
 1492 Fit      -0.008981
 1493 Fit      -0.010342
 1494 Fit      -0.008725
 1495 Fit      -0.009401
 1496 Fit      -0.000880
 1497 Fit      -0.007510
 1498 Fit      -0.008511
 1499 Fit      -0.009849
 1500 Fit      -0.005750
 1501 Fit      -0.015733
 1502 Fit      -0.021034
 1503 Fit      -0.020241
 1504 Fit      -0.027850
 1505 Fit      -0.007586
 1506 Fit      -0.000574
 1507 Fit      -0.006970
 1508 Fit      -0.001017
 1509 Fit      -0.007544
 1510 Fit      -0.009049
 1511 Fit      -0.013679
 1512 Fit      -0.015481
 1513 Fit      -0.010408
 1514 Fit      -0.020351
 1515 Fit       0.010858
 1516 Fit       0.021389
 1517 Fit       0.006144
 1518 Fit      -0.005529
 1519 Fit       0.003045
 1520 Fit      -0.011078
 1521 Fit      -0.000828
 1522 Fit      -0.008091
 1523 Fit      -0.008191
 1524 Fit      -0.014014
 1525 Fit      -0.011026
 1526 Fit      -0.019273
 1527 Fit      -0.005401
 1528 Fit      -0.001382
 1529 Fit      -0.007464
 1530 Fit      -0.006006
 1531 Fit      -0.010948
 1532 Fit      -0.006808
 1533 Fit      -0.005387
 1534 Fit      -0.002673
 1535 Fit      -0.003826
 1536 Fit      -0.006831
 1537 Fit      -0.008073
 1538 Fit      -0.003742
 1539 Fit      -0.005504
 1540 Fit      -0.001909
 1541 Fit      -0.014831
 1542 Fit      -0.013495
 1543 Fit      -0.005815
 1544 Fit      -0.005813
 1545 Fit      -0.012710
 1546 Fit      -0.007365
 1547 Fit      -0.005518
 1548 Fit      -0.020337
 1549 Fit      -0.016438
 1550 Fit      -0.014927
 1551 Fit      -0.017169
 1552 Fit      -0.022798
 1553 Fit      -0.009584
 1554 Fit      -0.011421
 1555 Fit      -0.019662
 1556 Fit      -0.025899
 1557 Fit      -0.005611
 1558 Fit      -0.017138
 1559 Fit      -0.024960
 1560 Fit      -0.028537
 1561 Fit      -0.012908
 1562 Fit      -0.022062
 1563 Fit      -0.026404
 1564 Fit      -0.028749
 1565 Fit      -0.008229
 1566 Fit      -0.018055
 1567 Fit      -0.022398
 1568 Fit      -0.023442
 1569 Fit      -0.013662
 1570 Fit      -0.017338
 1571 Fit      -0.016542
 1572 Fit      -0.009205
 1573 Fit      -0.011587
 1574 Fit       0.003142
 1575 Fit       0.008653
 1576 Fit       0.003367
 1577 Fit       0.011122
 1578 Fit       0.017544
 1579 Fit       0.015554
 1580 Fit       0.032322
 1581 Fit       0.025018
 1582 Fit       0.015279
 1583 Fit       0.006337
 1584 Fit       0.001102
 1585 Fit       0.019996
 1586 Fit       0.010826
 1587 Fit       0.003880
 1588 Fit       0.010355
 1589 Fit      -0.002175
 1590 Fit       0.001110
 1591 Fit      -0.000050
 1592 Fit      -0.002290
 1593 Fit       0.001688
 1594 Fit      -0.005050
 1595 Fit      -0.005387
 1596 Fit      -0.004372
 1597 Fit       0.002198
 1598 Fit      -0.000411
 1599 Fit      -0.003755
 1600 Fit       0.001217
 1601 Fit      -0.000921
 1602 Fit       0.002154
 1603 Fit       0.000446
 1604 Fit       0.004609
 1605 Fit      -0.000060
 1606 Fit       0.006523
 1607 Fit      -0.002469
 1608 Fit      -0.003632
 1609 Fit      -0.001761
 1610 Fit      -0.001446
 1611 Fit      -0.003450
 1612 Fit      -0.004463
 1613 Fit      -0.003488
 1614 Fit      -0.009500
 1615 Fit      -0.006899
 1616 Fit      -0.005194
 1617 Fit      -0.002115
 1618 Fit       0.005959
 1619 Fit      -0.003877
 1620 Fit      -0.005813
 1621 Fit       0.004573
 1622 Fit      -0.001088
 1623 Fit      -0.003327
 1624 Fit       0.003702
 1625 Fit      -0.010766
 1626 Fit      -0.012522
 1627 Fit      -0.006642
 1628 Fit      -0.009360
 1629 Fit      -0.004667
 1630 Fit      -0.019391
 1631 Fit      -0.013857
 1632 Fit      -0.008532
 1633 Fit      -0.012386
 1634 Fit      -0.005996
 1635 Fit       0.000003
 1636 Fit      -0.001487
 1637 Fit      -0.000299
 1638 Fit      -0.006746
 1639 Fit      -0.010080
 1640 Fit      -0.002986
 1641 Fit      -0.007242
 1642 Fit      -0.001846
 1643 Fit       0.007525
 1644 Fit       0.016037
 1645 Fit       0.013541
 1646 Fit       0.007864
 1647 Fit      -0.003693
 1648 Fit       0.023599
 1649 Fit       0.021127
 1650 Fit       0.018160
 1651 Fit       0.013822
 1652 Fit       0.006832
 1653 Fit       0.031030
 1654 Fit       0.025114
 1655 Fit       0.020871
 1656 Fit       0.016214
 1657 Fit       0.009741
 1658 Fit       0.029208
 1659 Fit       0.022121
 1660 Fit       0.015937
 1661 Fit       0.016155
 1662 Fit       0.004258
 1663 Fit       0.008128
 1664 Fit       0.010520
 1665 Fit       0.010502
 1666 Fit       0.002184
 1667 Fit       0.005390
 1668 Fit       0.003671
 1669 Fit      -0.000691
 1670 Fit       0.004672
 1671 Fit       0.001684
 1672 Fit      -0.000134
 1673 Fit       0.009132
 1674 Fit       0.000814
 1675 Fit      -0.003233
 1676 Fit       0.007601
 1677 Fit      -0.019081
 1678 Fit      -0.006434
 1679 Fit       0.000101
 1680 Fit       0.003825
 1681 Fit      -0.003390
 1682 Fit       0.001985
 1683 Fit       0.005043
 1684 Fit       0.000374
 1685 Fit       0.005014
 1686 Fit       0.006852
 1687 Fit       0.007501
 1688 Fit       0.006277
 1689 Fit       0.006585
 1690 Fit       0.007677
 1691 Fit       0.008381
 1692 Fit       0.007102
 1693 Fit       0.007504
 1694 Fit       0.010779
 1695 Fit       0.008774
 1696 Fit       0.010188
 1697 Fit       0.006897
 1698 Fit       0.008566
 1699 Fit       0.010536
 1700 Fit       0.013251
 1701 Fit       0.016062
 1702 Fit       0.006957
 1703 Fit       0.007380
 1704 Fit       0.008706
 1705 Fit       0.010902
 1706 Fit       0.013958
 1707 Fit       0.012925
 1708 Fit       0.008516
 1709 Fit       0.009105
 1710 Fit       0.011222
 1711 Fit       0.010630
 1712 Fit       0.003163
 1713 Fit       0.003916
 1714 Fit       0.004575
 1715 Fit       0.004770
 1716 Fit       0.003022
 1717 Fit       0.004258
 1718 Fit       0.005291
 1719 Fit       0.005850
 1720 Fit       0.006045
 1721 Fit       0.002957
 1722 Fit       0.004464
 1723 Fit       0.005782
 1724 Fit       0.006664
 1725 Fit       0.007134
 1726 Fit       0.004955
 1727 Fit       0.006581
 1728 Fit       0.007757
 1729 Fit       0.003700
 1730 Fit       0.003401
 1731 Fit       0.002785
 1732 Fit       0.004180
 1733 Fit       0.004127
 1734 Fit       0.003919
 1735 Fit       0.003352
 1736 Fit       0.002785
 1737 Fit       0.004637
 1738 Fit       0.004523
 1739 Fit       0.004164
 1740 Fit       0.003904
 1741 Fit       0.005333
 1742 Fit       0.005190
 1743 Fit       0.001031
 1744 Fit       0.002294
 1745 Fit       0.001908
 1746 Fit       0.001486
 1747 Fit       0.003585
 1748 Fit       0.003334
 1749 Fit       0.002487
 1750 Fit       0.002042
 1751 Fit       0.003117
 1752 Fit       0.005006
 1753 Fit       0.004999
 1754 Fit       0.003757
 1755 Fit       0.004560
 1756 Fit       0.001289
 1757 Fit       0.001249
 1758 Fit       0.002066
 1759 Fit       0.002358
 1760 Fit       0.001363
 1761 Fit       0.001724
 1762 Fit       0.002829
 1763 Fit       0.003197
 1764 Fit       0.002783
 1765 Fit       0.001795
 1766 Fit       0.002341
 1767 Fit       0.003190
 1768 Fit       0.003416
 1769 Fit       0.003182
 1770 Fit       0.002762
 1771 Fit       0.002664
 1772 Fit       0.003150
 1773 Fit       0.003148
 1774 Fit       0.001634
 1775 Fit       0.001679
 1776 Fit       0.001417
 1777 Fit       0.001146
 1778 Fit       0.001107
 1779 Fit       0.001313
 1780 Fit       0.001335
 1781 Fit       0.001888
 1782 Fit       0.001004
 1783 Fit       0.000210
 1784 Fit      -0.000164
 1785 Fit      -0.000292
 1786 Fit      -0.000232
 1787 Fit       0.000198
 1788 Fit      -0.002372
 1789 Fit      -0.002610
 1790 Fit      -0.002563
 1791 Fit      -0.002261
 1792 Fit      -0.001521
 1793 Fit       0.000053
 1794 Fit      -0.004185
 1795 Fit      -0.001825
 1796 Fit       0.000123
 1797 Fit       0.001523
 1798 Fit       0.002684
 1799 Fit      -0.005395
 1800 Fit      -0.001862
 1801 Fit       0.000679
 1802 Fit       0.002402
 1803 Fit      -0.005499
 1804 Fit      -0.000740
 1805 Fit       0.002325
 1806 Fit      -0.006512
 1807 Fit      -0.007196
 1808 Fit      -0.006360
 1809 Fit      -0.009170
 1810 Fit      -0.013099
 1811 Fit      -0.014842
 1812 Fit      -0.012648
 1813 Fit      -0.008967
 1814 Fit      -0.026029
 1815 Fit      -0.015869
 1816 Fit      -0.021888
 1817 Fit       0.002488
 1818 Fit       0.000433
 1819 Fit       0.003428
 1820 Fit       0.001225
 1821 Fit      -0.001403
 1822 Fit       0.005231
 1823 Fit       0.004748
 1824 Fit       0.002117
 1825 Fit      -0.001084
 1826 Fit       0.006978
 1827 Fit      -0.000789
 1828 Fit      -0.015543
 1829 Fit      -0.007037
 1830 Fit      -0.023722
 1831 Fit      -0.010432
 1832 Fit      -0.002352
 1833 Fit      -0.014920
 1834 Fit      -0.005100
 1835 Fit       0.001863
 1836 Fit      -0.008642
 1837 Fit      -0.001576
 1838 Fit      -0.013793
 1839 Fit      -0.005567
 1840 Fit       0.004960
 1841 Fit       0.011967
 1842 Fit       0.010806
 1843 Fit       0.003879
 1844 Fit       0.015854
 1845 Fit       0.013510
 1846 Fit       0.017669
 1847 Fit       0.020276
 1848 Fit       0.016277
 1849 Fit       0.024273
 1850 Fit       0.015747
 1851 Fit       0.023711
 1852 Fit       0.028575
 1853 Fit       0.032277
 1854 Fit       0.017940
 1855 Fit       0.025991
 1856 Fit       0.030303
 1857 Fit       0.032728
 1858 Fit       0.034122
 1859 Fit       0.021649
 1860 Fit       0.028107
 1861 Fit       0.030651
 1862 Fit       0.030201
 1863 Fit       0.015073
 1864 Fit       0.024435
 1865 Fit       0.026038
 1866 Fit       0.018995
 1867 Fit       0.009242
 1868 Fit       0.015170
 1869 Fit       0.008220
 1870 Fit       0.015339
 1871 Fit       0.006331
 1872 Fit       0.015670
 1873 Fit       0.008032
 1874 Fit       0.010776
 1875 Fit       0.000644
 1876 Fit       0.005938
 1877 Fit       0.012383
 1878 Fit       0.004735
 1879 Fit       0.008751
 1880 Fit       0.013789
 1881 Fit       0.004838
 1882 Fit       0.007337
 1883 Fit       0.011024
 1884 Fit       0.014888
 1885 Fit       0.004699
 1886 Fit       0.008351
 1887 Fit       0.009472
 1888 Fit       0.004115
 1889 Fit      -0.019026
 1890 Fit      -0.017019
 1891 Fit      -0.026635
 1892 Fit      -0.025517
 1893 Fit       0.000169
 1894 Fit      -0.007365
 1895 Fit      -0.007772
 1896 Fit      -0.015729
 1897 Fit      -0.028668
 1898 Fit      -0.033531
 1899 Fit      -0.033654
 1900 Fit      -0.031229
 1901 Fit      -0.029876
 1902 Fit      -0.036452
 1903 Fit      -0.036465
 1904 Fit      -0.034072
 1905 Fit      -0.025395
 1906 Fit      -0.033562
 1907 Fit      -0.037484
 1908 Fit      -0.037131
 1909 Fit      -0.034299
 1910 Fit      -0.029711
 1911 Fit      -0.035502
 1912 Fit      -0.036822
 1913 Fit      -0.035660
 1914 Fit      -0.030325
 1915 Fit      -0.016718
 1916 Fit      -0.029112
 1917 Fit      -0.035020
 1918 Fit      -0.034534
 1919 Fit      -0.032296
 1920 Fit      -0.017730
 1921 Fit      -0.026887
 1922 Fit      -0.032788
 1923 Fit      -0.030502
 1924 Fit      -0.025429
 1925 Fit      -0.019736
 1926 Fit      -0.027142
 1927 Fit      -0.024565
 1928 Fit       0.006000
 1929 Fit      -0.001315
 1930 Fit       0.015429
 1931 Fit       0.012072
 1932 Fit       0.006832
 1933 Fit      -0.002547
 1934 Fit       0.016228
 1935 Fit       0.012770
 1936 Fit       0.007004
 1937 Fit      -0.003909
 1938 Fit       0.012652
 1939 Fit       0.007876
 1940 Fit      -0.002557
 1941 Fit       0.001290
 1942 Fit      -0.009105
 1943 Fit      -0.014384
 1944 Fit      -0.013670
 1945 Fit       0.000833
 1946 Fit      -0.002592
 1947 Fit      -0.008655
 1948 Fit      -0.017736
 1949 Fit       0.007225
 1950 Fit       0.002045
 1951 Fit      -0.002915
 1952 Fit      -0.009950
 1953 Fit      -0.023553
 1954 Fit       0.013307
 1955 Fit       0.009353
 1956 Fit       0.006440
 1957 Fit      -0.010063
 1958 Fit       0.016487
 1959 Fit       0.018425
 1960 Fit       0.016766
 1961 Fit       0.004703
 1962 Fit       0.010844
 1963 Fit       0.010732
 1964 Fit       0.008903
 1965 Fit       0.001612
 1966 Fit       0.002291
 1967 Fit      -0.004149
 1968 Fit       0.023510
 1969 Fit       0.019154
 1970 Fit       0.023908
 1971 Fit       0.021964
 1972 Fit       0.020495
 1973 Fit       0.022355
 1974 Fit       0.021787
 1975 Fit       0.012325
 1976 Fit       0.017868
 1977 Fit       0.018607
 -----------------------------------------------------------------
 Leave Link  602 at Thu Jan 30 17:35:21 2025, MaxMem=   104857600 cpu:               0.2 elap:               0.2
 (Enter /home/pb777/GAUSSIAN/g16/l9999.exe)

 Test job not archived.
 1\1\GINC-BUMBU\SP\RHF\6-31G(d)\C19H22N6O2\PB777\30-Jan-2025\0\\#P HF/6
 -31G* GEOM(AllCheck) Guess(Read) NoSymm Pop=mk IOp(6/33=2) GFInput GFP
 rint\\Gaussian Calculation\\0,1\C,0,1.6339734475,29.0823574958,7.03122
 79544\C,0,-1.7643298965,31.6135535811,8.0043054532\C,0,-0.2311297973,2
 6.3652285939,9.3269174255\C,0,-1.1600939255,25.5745400391,10.227720450
 8\C,0,-0.6417998483,24.1420669708,10.3863777459\C,0,-1.5483408657,23.3
 138865078,11.2958816911\C,0,-1.7353263188,23.9819563001,12.6569469198\
 C,0,-2.250672884,25.4116674587,12.5034052022\C,0,-1.3422904035,26.2380
 88217,11.5952038742\C,0,5.630781688,26.5156664621,5.6857420416\C,0,5.3
 07141709,25.3457219437,6.3793444789\C,0,4.1315726265,25.3296013639,7.1
 335068158\C,0,3.2838610014,26.4278825897,7.1898152342\N,0,0.999279965,
 28.1795999901,7.7994996324\C,0,-0.1584660925,28.5178988283,8.352727561
 4\O,0,-0.8150435872,27.6542089618,9.1144191905\C,0,-0.701521851,29.793
 909445,8.1360498281\N,0,-1.8474532672,30.4361768478,8.5552556613\N,0,-
 0.6289397046,31.7898142548,7.2433216246\C,0,0.0764498358,30.6207454189
 ,7.3147764501\N,0,1.2374573691,30.3270363196,6.7394225474\N,0,2.832721
 4386,28.7433057291,6.4509727733\C,0,3.6044361442,27.5900431959,6.47360
 64707\C,0,4.7949711579,27.6144576632,5.7245275623\H,0,-2.4966578628,32
 .4036992615,8.110818486\H,0,-0.0932073442,25.8696535455,8.3582289725\H
 ,0,0.7581558754,26.4892835251,9.7861237558\H,0,-2.142515766,25.5316913
 754,9.732494096\H,0,0.3711957013,24.1728276444,10.8170045417\H,0,-0.55
 01231358,23.661282805,9.4030393894\H,0,-1.1364769469,22.3044430852,11.
 4176360173\H,0,-2.5294284185,23.1954217878,10.8132056617\H,0,-0.770590
 5663,24.0005457092,13.1853603111\H,0,-2.4205147452,23.3920748204,13.27
 83244686\H,0,-2.3393267959,25.8934856309,13.4848268184\H,0,-3.26378322
 97,25.3879000365,12.0757669473\H,0,-1.7410582452,27.2500587805,11.4651
 974856\H,0,-0.3538751115,26.3447047984,12.0695210322\H,0,6.5553570818,
 26.5371333651,5.1171739148\H,0,3.8758539679,24.4558432927,7.728339203\
 H,0,2.382036392,26.4050357282,7.7852598056\H,0,-0.3555696149,32.613029
 7222,6.7293327289\H,0,3.2017386297,29.5066915624,5.9011249459\H,0,5.05
 94207922,28.5138356974,5.1715618653\C,0,6.2555562818,24.2004534797,6.2
 823457183\O,0,7.4011872882,24.3369106835,5.8803300846\H,0,6.3866656799
 ,22.2006453767,6.491974362\N,0,5.779846445,22.9816389589,6.6959761689\
 H,0,4.7898757067,22.7942951492,6.6640586297\\Version=ES64L-G16RevA.03\
 HF=-1208.7927913\RMSD=8.989e-09\Dipole=-1.6041702,0.6852173,-0.146614\
 Quadrupole=-57.1381746,81.4416275,-24.3034529,-77.6070844,-17.5393663,
 -6.2588989\PG=C01 [X(C19H22N6O2)]\\@


 THERE ONCE WAS A GIRL NAMED IRENE,
 WHO LIVED ON DISTILLED KEROSENE,
      BUT SHE STARTED ABSORBIN'
      A NEW HYDROCARBON,
 AND SINCE THEN HAS NEVER BENZENE.
 Job cpu time:       0 days  0 hours  2 minutes  6.3 seconds.
 Elapsed time:       0 days  0 hours  2 minutes  6.7 seconds.
 File lengths (MBytes):  RWF=    108 Int=      0 D2E=      0 Chk=     19 Scr=      1
 Normal termination of Gaussian 16 at Thu Jan 30 17:35:21 2025.
