 Entering Gaussian System, Link 0=/home/pb777/GAUSSIAN/g16/g16
 Initial command:
 /home/pb777/GAUSSIAN/g16/l1.exe "/home/pb777/GAUSSIAN/g16/scratch/Gau-1062656.inp" -scrdir="/home/pb777/GAUSSIAN/g16/scratch/"
 Entering Link 1 = /home/pb777/GAUSSIAN/g16/l1.exe PID=   1062657.
  
 Copyright (c) 1988,1990,1992,1993,1995,1998,2003,2009,2016,
            Gaussian, Inc.  All Rights Reserved.
  
 This is part of the Gaussian(R) 16 program.  It is based on
 the Gaussian(R) 09 system (copyright 2009, Gaussian, Inc.),
 the Gaussian(R) 03 system (copyright 2003, Gaussian, Inc.),
 the Gaussian(R) 98 system (copyright 1998, Gaussian, Inc.),
 the Gaussian(R) 94 system (copyright 1995, Gaussian, Inc.),
 the Gaussian 92(TM) system (copyright 1992, Gaussian, Inc.),
 the Gaussian 90(TM) system (copyright 1990, Gaussian, Inc.),
 the Gaussian 88(TM) system (copyright 1988, Gaussian, Inc.),
 the Gaussian 86(TM) system (copyright 1986, Carnegie Mellon
 University), and the Gaussian 82(TM) system (copyright 1983,
 Carnegie Mellon University). Gaussian is a federally registered
 trademark of Gaussian, Inc.
  
 This software contains proprietary and confidential information,
 including trade secrets, belonging to Gaussian, Inc.
  
 This software is provided under written license and may be
 used, copied, transmitted, or stored only in accord with that
 written license.
  
 The following legend is applicable only to US Government
 contracts under FAR:
  
                    RESTRICTED RIGHTS LEGEND
  
 Use, reproduction and disclosure by the US Government is
 subject to restrictions as set forth in subparagraphs (a)
 and (c) of the Commercial Computer Software - Restricted
 Rights clause in FAR 52.227-19.
  
 Gaussian, Inc.
 340 Quinnipiac St., Bldg. 40, Wallingford CT 06492
  
  
 ---------------------------------------------------------------
 Warning -- This program may not be used in any manner that
 competes with the business of Gaussian, Inc. or will provide
 assistance to any competitor of Gaussian, Inc.  The licensee
 of this program is prohibited from giving any competitor of
 Gaussian, Inc. access to this program.  By using this program,
 the user acknowledges that Gaussian, Inc. is engaged in the
 business of creating and licensing software in the field of
 computational chemistry and represents and warrants to the
 licensee that it is not a competitor of Gaussian, Inc. and that
 it will not use this program in any manner prohibited above.
 ---------------------------------------------------------------
  

 Cite this work as:
 Gaussian 16, Revision A.03,
 M. J. Frisch, G. W. Trucks, H. B. Schlegel, G. E. Scuseria, 
 M. A. Robb, J. R. Cheeseman, G. Scalmani, V. Barone, 
 G. A. Petersson, H. Nakatsuji, X. Li, M. Caricato, A. V. Marenich, 
 J. Bloino, B. G. Janesko, R. Gomperts, B. Mennucci, H. P. Hratchian, 
 J. V. Ortiz, A. F. Izmaylov, J. L. Sonnenberg, D. Williams-Young, 
 F. Ding, F. Lipparini, F. Egidi, J. Goings, B. Peng, A. Petrone, 
 T. Henderson, D. Ranasinghe, V. G. Zakrzewski, J. Gao, N. Rega, 
 G. Zheng, W. Liang, M. Hada, M. Ehara, K. Toyota, R. Fukuda, 
 J. Hasegawa, M. Ishida, T. Nakajima, Y. Honda, O. Kitao, H. Nakai, 
 T. Vreven, K. Throssell, J. A. Montgomery, Jr., J. E. Peralta, 
 F. Ogliaro, M. J. Bearpark, J. J. Heyd, E. N. Brothers, K. N. Kudin, 
 V. N. Staroverov, T. A. Keith, R. Kobayashi, J. Normand, 
 K. Raghavachari, A. P. Rendell, J. C. Burant, S. S. Iyengar, 
 J. Tomasi, M. Cossi, J. M. Millam, M. Klene, C. Adamo, R. Cammi, 
 J. W. Ochterski, R. L. Martin, K. Morokuma, O. Farkas, 
 J. B. Foresman, and D. J. Fox, Gaussian, Inc., Wallingford CT, 2016.
 
 ******************************************
 Gaussian 16:  ES64L-G16RevA.03 25-Dec-2016
                30-Jan-2025 
 ******************************************
 %NPROC=1', f'%MEM=512MB
 Will use up to    1 processors via shared memory.
 %chk=binder_1oi9.antechamber.chk
 ------------------------
 #P HF/6-31G* OPT(CalcFC)
 ------------------------
 1/10=4,18=20,19=15,38=1/1,3;
 2/9=110,12=2,17=6,18=5,40=1/2;
 3/5=1,6=6,7=1,11=9,25=1,30=1,71=2,140=1/1,2,3;
 4//1;
 5/5=2,38=5/2;
 8/6=4,10=90,11=11/1;
 11/6=1,8=1,9=11,15=111,16=1/1,2,10;
 10/6=1,13=1/2;
 6/7=2,8=2,9=2,10=2,28=1/1;
 7/10=1,18=20,25=1/1,2,3,16;
 1/10=4,18=20,19=15/3(2);
 2/9=110/2;
 99//99;
 2/9=110/2;
 3/5=1,6=6,7=1,11=9,25=1,30=1,71=1/1,2,3;
 4/5=5,16=3,69=1/1;
 5/5=2,38=5/2;
 7//1,2,3,16;
 1/18=20,19=15/3(-5);
 2/9=110/2;
 6/7=2,8=2,9=2,10=2,19=2,28=1/1;
 99/9=1/99;
 Leave Link    1 at Thu Jan 30 14:39:55 2025, MaxMem=           0 cpu:               0.0 elap:               0.0
 (Enter /home/pb777/GAUSSIAN/g16/l101.exe)
 --------------------
 Gaussian Calculation
 --------------------
 Symbolic Z-matrix:
 Charge =  0 Multiplicity = 1
 C                     1.422     29.034    6.768 
 C                    -1.45      32.163    8.008 
 C                    -0.582     26.625    8.978 
 C                    -1.25      25.767    10.081 
 C                    -1.355     24.331    9.527 
 C                    -1.653     23.273    10.603 
 C                    -0.781     23.343    11.865 
 C                    -0.712     24.779    12.432 
 C                    -0.388     25.86     11.38 
 C                     4.731     25.846    5.404 
 C                     4.696     25.144    6.604 
 C                     3.992     25.648    7.692 
 C                     3.286     26.846    7.561 
 N                     0.488     28.18     7.498 
 C                    -0.568     28.637    8.086 
 O                    -1.389     27.808    8.752 
 C                    -0.837     30.059    7.987 
 N                    -1.806     31.022    8.425 
 N                    -0.337     32.096    7.318 
 C                     0.012     30.844    7.311 
 N                     1.172     30.278    6.709 
 N                     2.523     28.721    6.157 
 C                     3.274     27.543    6.343 
 C                     4.034     27.047    5.284 
 H                    -1.973     33.085    8.159 
 H                    -0.54      26.054    8.043 
 H                     0.453     26.776    9.312 
 H                    -2.258     26.125    10.296 
 H                    -0.409     24.042    9.063 
 H                    -2.106     24.282    8.736 
 H                    -1.609     22.271    10.176 
 H                    -2.684     23.422    10.916 
 H                     0.23      23.014    11.618 
 H                    -1.152     22.652    12.623 
 H                    -0.027     24.811    13.272 
 H                    -1.687     25.018    12.862 
 H                    -0.474     26.853    11.824 
 H                     0.671     25.729    11.147 
 H                     5.295     25.477    4.561 
 O                     5.361     23.951    6.703 
 H                     3.983     25.111    8.631 
 H                     2.734     27.222    8.409 
 H                     0.089     32.895    6.844 
 H                     2.927     29.448    5.583 
 H                     4.08      27.587    4.356 
 H                     5.934     23.846    5.932 
 
 ITRead=  0  0  0  0  0  0  0  0  0  0  0  0  0  0  0  0  0  0  0  0
 ITRead=  0  0  0  0  0  0  0  0  0  0  0  0  0  0  0  0  0  0  0  0
 ITRead=  0  0  0  0  0  0
 MicOpt= -1 -1 -1 -1 -1 -1 -1 -1 -1 -1 -1 -1 -1 -1 -1 -1 -1 -1 -1 -1
 MicOpt= -1 -1 -1 -1 -1 -1 -1 -1 -1 -1 -1 -1 -1 -1 -1 -1 -1 -1 -1 -1
 MicOpt= -1 -1 -1 -1 -1 -1
 NAtoms=     46 NQM=       46 NQMF=       0 NMMI=      0 NMMIF=      0
                NMic=       0 NMicF=      0.
                    Isotopes and Nuclear Properties:
 (Nuclear quadrupole moments (NQMom) in fm**2, nuclear magnetic moments (NMagM)
  in nuclear magnetons)

  Atom         1           2           3           4           5           6           7           8           9          10
 IAtWgt=          12          12          12          12          12          12          12          12          12          12
 AtmWgt=  12.0000000  12.0000000  12.0000000  12.0000000  12.0000000  12.0000000  12.0000000  12.0000000  12.0000000  12.0000000
 NucSpn=           0           0           0           0           0           0           0           0           0           0
 AtZEff=  -0.0000000  -0.0000000  -0.0000000  -0.0000000  -0.0000000  -0.0000000  -0.0000000  -0.0000000  -0.0000000  -0.0000000
 NQMom=    0.0000000   0.0000000   0.0000000   0.0000000   0.0000000   0.0000000   0.0000000   0.0000000   0.0000000   0.0000000
 NMagM=    0.0000000   0.0000000   0.0000000   0.0000000   0.0000000   0.0000000   0.0000000   0.0000000   0.0000000   0.0000000
 AtZNuc=   6.0000000   6.0000000   6.0000000   6.0000000   6.0000000   6.0000000   6.0000000   6.0000000   6.0000000   6.0000000

  Atom        11          12          13          14          15          16          17          18          19          20
 IAtWgt=          12          12          12          14          12          16          12          14          14          12
 AtmWgt=  12.0000000  12.0000000  12.0000000  14.0030740  12.0000000  15.9949146  12.0000000  14.0030740  14.0030740  12.0000000
 NucSpn=           0           0           0           2           0           0           0           2           2           0
 AtZEff=  -0.0000000  -0.0000000  -0.0000000  -0.0000000  -0.0000000  -0.0000000  -0.0000000  -0.0000000  -0.0000000  -0.0000000
 NQMom=    0.0000000   0.0000000   0.0000000   2.0440000   0.0000000   0.0000000   0.0000000   2.0440000   2.0440000   0.0000000
 NMagM=    0.0000000   0.0000000   0.0000000   0.4037610   0.0000000   0.0000000   0.0000000   0.4037610   0.4037610   0.0000000
 AtZNuc=   6.0000000   6.0000000   6.0000000   7.0000000   6.0000000   8.0000000   6.0000000   7.0000000   7.0000000   6.0000000

  Atom        21          22          23          24          25          26          27          28          29          30
 IAtWgt=          14          14          12          12           1           1           1           1           1           1
 AtmWgt=  14.0030740  14.0030740  12.0000000  12.0000000   1.0078250   1.0078250   1.0078250   1.0078250   1.0078250   1.0078250
 NucSpn=           2           2           0           0           1           1           1           1           1           1
 AtZEff=  -0.0000000  -0.0000000  -0.0000000  -0.0000000  -0.0000000  -0.0000000  -0.0000000  -0.0000000  -0.0000000  -0.0000000
 NQMom=    2.0440000   2.0440000   0.0000000   0.0000000   0.0000000   0.0000000   0.0000000   0.0000000   0.0000000   0.0000000
 NMagM=    0.4037610   0.4037610   0.0000000   0.0000000   2.7928460   2.7928460   2.7928460   2.7928460   2.7928460   2.7928460
 AtZNuc=   7.0000000   7.0000000   6.0000000   6.0000000   1.0000000   1.0000000   1.0000000   1.0000000   1.0000000   1.0000000

  Atom        31          32          33          34          35          36          37          38          39          40
 IAtWgt=           1           1           1           1           1           1           1           1           1          16
 AtmWgt=   1.0078250   1.0078250   1.0078250   1.0078250   1.0078250   1.0078250   1.0078250   1.0078250   1.0078250  15.9949146
 NucSpn=           1           1           1           1           1           1           1           1           1           0
 AtZEff=  -0.0000000  -0.0000000  -0.0000000  -0.0000000  -0.0000000  -0.0000000  -0.0000000  -0.0000000  -0.0000000  -0.0000000
 NQMom=    0.0000000   0.0000000   0.0000000   0.0000000   0.0000000   0.0000000   0.0000000   0.0000000   0.0000000   0.0000000
 NMagM=    2.7928460   2.7928460   2.7928460   2.7928460   2.7928460   2.7928460   2.7928460   2.7928460   2.7928460   0.0000000
 AtZNuc=   1.0000000   1.0000000   1.0000000   1.0000000   1.0000000   1.0000000   1.0000000   1.0000000   1.0000000   8.0000000

  Atom        41          42          43          44          45          46
 IAtWgt=           1           1           1           1           1           1
 AtmWgt=   1.0078250   1.0078250   1.0078250   1.0078250   1.0078250   1.0078250
 NucSpn=           1           1           1           1           1           1
 AtZEff=  -0.0000000  -0.0000000  -0.0000000  -0.0000000  -0.0000000  -0.0000000
 NQMom=    0.0000000   0.0000000   0.0000000   0.0000000   0.0000000   0.0000000
 NMagM=    2.7928460   2.7928460   2.7928460   2.7928460   2.7928460   2.7928460
 AtZNuc=   1.0000000   1.0000000   1.0000000   1.0000000   1.0000000   1.0000000
 Leave Link  101 at Thu Jan 30 14:39:55 2025, MaxMem=   104857600 cpu:               0.1 elap:               0.1
 (Enter /home/pb777/GAUSSIAN/g16/l103.exe)

 GradGradGradGradGradGradGradGradGradGradGradGradGradGradGradGradGradGrad
 Berny optimization.
 Initialization pass.
                           ----------------------------
                           !    Initial Parameters    !
                           ! (Angstroms and Degrees)  !
 --------------------------                            --------------------------
 ! Name  Definition              Value          Derivative Info.                !
 --------------------------------------------------------------------------------
 ! R1    R(1,14)                 1.461          calculate D2E/DX2 analytically  !
 ! R2    R(1,21)                 1.2702         calculate D2E/DX2 analytically  !
 ! R3    R(1,22)                 1.2975         calculate D2E/DX2 analytically  !
 ! R4    R(2,18)                 1.2659         calculate D2E/DX2 analytically  !
 ! R5    R(2,19)                 1.3112         calculate D2E/DX2 analytically  !
 ! R6    R(2,25)                 1.0707         calculate D2E/DX2 analytically  !
 ! R7    R(3,4)                  1.5489         calculate D2E/DX2 analytically  !
 ! R8    R(3,16)                 1.4498         calculate D2E/DX2 analytically  !
 ! R9    R(3,26)                 1.0964         calculate D2E/DX2 analytically  !
 ! R10   R(3,27)                 1.098          calculate D2E/DX2 analytically  !
 ! R11   R(4,5)                  1.5427         calculate D2E/DX2 analytically  !
 ! R12   R(4,9)                  1.5618         calculate D2E/DX2 analytically  !
 ! R13   R(4,28)                 1.0911         calculate D2E/DX2 analytically  !
 ! R14   R(5,6)                  1.5382         calculate D2E/DX2 analytically  !
 ! R15   R(5,29)                 1.0926         calculate D2E/DX2 analytically  !
 ! R16   R(5,30)                 1.0918         calculate D2E/DX2 analytically  !
 ! R17   R(6,7)                  1.5356         calculate D2E/DX2 analytically  !
 ! R18   R(6,31)                 1.0901         calculate D2E/DX2 analytically  !
 ! R19   R(6,32)                 1.0877         calculate D2E/DX2 analytically  !
 ! R20   R(7,8)                  1.5454         calculate D2E/DX2 analytically  !
 ! R21   R(7,33)                 1.0915         calculate D2E/DX2 analytically  !
 ! R22   R(7,34)                 1.0907         calculate D2E/DX2 analytically  !
 ! R23   R(8,9)                  1.5428         calculate D2E/DX2 analytically  !
 ! R24   R(8,35)                 1.0844         calculate D2E/DX2 analytically  !
 ! R25   R(8,36)                 1.0921         calculate D2E/DX2 analytically  !
 ! R26   R(9,37)                 1.0911         calculate D2E/DX2 analytically  !
 ! R27   R(9,38)                 1.0922         calculate D2E/DX2 analytically  !
 ! R28   R(10,11)                1.3907         calculate D2E/DX2 analytically  !
 ! R29   R(10,24)                1.3938         calculate D2E/DX2 analytically  !
 ! R30   R(10,39)                1.0793         calculate D2E/DX2 analytically  !
 ! R31   R(11,12)                1.3905         calculate D2E/DX2 analytically  !
 ! R32   R(11,40)                1.3694         calculate D2E/DX2 analytically  !
 ! R33   R(12,13)                1.3967         calculate D2E/DX2 analytically  !
 ! R34   R(12,41)                1.0817         calculate D2E/DX2 analytically  !
 ! R35   R(13,23)                1.4034         calculate D2E/DX2 analytically  !
 ! R36   R(13,42)                1.0794         calculate D2E/DX2 analytically  !
 ! R37   R(14,15)                1.2922         calculate D2E/DX2 analytically  !
 ! R38   R(15,16)                1.3434         calculate D2E/DX2 analytically  !
 ! R39   R(15,17)                1.4506         calculate D2E/DX2 analytically  !
 ! R40   R(17,18)                1.4346         calculate D2E/DX2 analytically  !
 ! R41   R(17,20)                1.3394         calculate D2E/DX2 analytically  !
 ! R42   R(19,20)                1.2998         calculate D2E/DX2 analytically  !
 ! R43   R(19,43)                1.022          calculate D2E/DX2 analytically  !
 ! R44   R(20,21)                1.4242         calculate D2E/DX2 analytically  !
 ! R45   R(22,23)                1.4094         calculate D2E/DX2 analytically  !
 ! R46   R(22,44)                1.0106         calculate D2E/DX2 analytically  !
 ! R47   R(23,24)                1.3947         calculate D2E/DX2 analytically  !
 ! R48   R(24,45)                1.0747         calculate D2E/DX2 analytically  !
 ! R49   R(40,46)                0.9663         calculate D2E/DX2 analytically  !
 ! A1    A(14,1,21)            118.0237         calculate D2E/DX2 analytically  !
 ! A2    A(14,1,22)            129.5499         calculate D2E/DX2 analytically  !
 ! A3    A(21,1,22)            112.4195         calculate D2E/DX2 analytically  !
 ! A4    A(18,2,19)            111.4686         calculate D2E/DX2 analytically  !
 ! A5    A(18,2,25)            126.3224         calculate D2E/DX2 analytically  !
 ! A6    A(19,2,25)            122.1965         calculate D2E/DX2 analytically  !
 ! A7    A(4,3,16)             108.8423         calculate D2E/DX2 analytically  !
 ! A8    A(4,3,26)             109.5929         calculate D2E/DX2 analytically  !
 ! A9    A(4,3,27)             105.4321         calculate D2E/DX2 analytically  !
 ! A10   A(16,3,26)            108.2618         calculate D2E/DX2 analytically  !
 ! A11   A(16,3,27)            117.3813         calculate D2E/DX2 analytically  !
 ! A12   A(26,3,27)            107.1535         calculate D2E/DX2 analytically  !
 ! A13   A(3,4,5)              106.8132         calculate D2E/DX2 analytically  !
 ! A14   A(3,4,9)              108.7409         calculate D2E/DX2 analytically  !
 ! A15   A(3,4,28)             110.9167         calculate D2E/DX2 analytically  !
 ! A16   A(5,4,9)              113.059          calculate D2E/DX2 analytically  !
 ! A17   A(5,4,28)             108.2581         calculate D2E/DX2 analytically  !
 ! A18   A(9,4,28)             109.0551         calculate D2E/DX2 analytically  !
 ! A19   A(4,5,6)              113.7174         calculate D2E/DX2 analytically  !
 ! A20   A(4,5,29)             109.8638         calculate D2E/DX2 analytically  !
 ! A21   A(4,5,30)             110.4108         calculate D2E/DX2 analytically  !
 ! A22   A(6,5,29)             106.4326         calculate D2E/DX2 analytically  !
 ! A23   A(6,5,30)             110.0394         calculate D2E/DX2 analytically  !
 ! A24   A(29,5,30)            106.0225         calculate D2E/DX2 analytically  !
 ! A25   A(5,6,7)              115.6925         calculate D2E/DX2 analytically  !
 ! A26   A(5,6,31)             110.5129         calculate D2E/DX2 analytically  !
 ! A27   A(5,6,32)             106.9005         calculate D2E/DX2 analytically  !
 ! A28   A(7,6,31)             109.9325         calculate D2E/DX2 analytically  !
 ! A29   A(7,6,32)             107.1888         calculate D2E/DX2 analytically  !
 ! A30   A(31,6,32)            106.0749         calculate D2E/DX2 analytically  !
 ! A31   A(6,7,8)              111.6688         calculate D2E/DX2 analytically  !
 ! A32   A(6,7,33)             109.0426         calculate D2E/DX2 analytically  !
 ! A33   A(6,7,34)             110.4329         calculate D2E/DX2 analytically  !
 ! A34   A(8,7,33)             108.7686         calculate D2E/DX2 analytically  !
 ! A35   A(8,7,34)             110.4189         calculate D2E/DX2 analytically  !
 ! A36   A(33,7,34)            106.3414         calculate D2E/DX2 analytically  !
 ! A37   A(7,8,9)              114.2214         calculate D2E/DX2 analytically  !
 ! A38   A(7,8,35)             109.8668         calculate D2E/DX2 analytically  !
 ! A39   A(7,8,36)             107.9358         calculate D2E/DX2 analytically  !
 ! A40   A(9,8,35)             112.0164         calculate D2E/DX2 analytically  !
 ! A41   A(9,8,36)             107.616          calculate D2E/DX2 analytically  !
 ! A42   A(35,8,36)            104.6261         calculate D2E/DX2 analytically  !
 ! A43   A(4,9,8)              114.1745         calculate D2E/DX2 analytically  !
 ! A44   A(4,9,37)             110.4349         calculate D2E/DX2 analytically  !
 ! A45   A(4,9,38)             110.5227         calculate D2E/DX2 analytically  !
 ! A46   A(8,9,37)             110.0986         calculate D2E/DX2 analytically  !
 ! A47   A(8,9,38)             105.3697         calculate D2E/DX2 analytically  !
 ! A48   A(37,9,38)            105.8059         calculate D2E/DX2 analytically  !
 ! A49   A(11,10,24)           119.7801         calculate D2E/DX2 analytically  !
 ! A50   A(11,10,39)           120.966          calculate D2E/DX2 analytically  !
 ! A51   A(24,10,39)           119.2534         calculate D2E/DX2 analytically  !
 ! A52   A(10,11,12)           120.3283         calculate D2E/DX2 analytically  !
 ! A53   A(10,11,40)           119.3351         calculate D2E/DX2 analytically  !
 ! A54   A(12,11,40)           120.3365         calculate D2E/DX2 analytically  !
 ! A55   A(11,12,13)           119.5667         calculate D2E/DX2 analytically  !
 ! A56   A(11,12,41)           120.2316         calculate D2E/DX2 analytically  !
 ! A57   A(13,12,41)           120.199          calculate D2E/DX2 analytically  !
 ! A58   A(12,13,23)           120.7786         calculate D2E/DX2 analytically  !
 ! A59   A(12,13,42)           118.9194         calculate D2E/DX2 analytically  !
 ! A60   A(23,13,42)           120.2947         calculate D2E/DX2 analytically  !
 ! A61   A(1,14,15)            122.8931         calculate D2E/DX2 analytically  !
 ! A62   A(14,15,16)           120.4487         calculate D2E/DX2 analytically  !
 ! A63   A(14,15,17)           117.8516         calculate D2E/DX2 analytically  !
 ! A64   A(16,15,17)           121.696          calculate D2E/DX2 analytically  !
 ! A65   A(3,16,15)            103.9239         calculate D2E/DX2 analytically  !
 ! A66   A(15,17,18)           139.6791         calculate D2E/DX2 analytically  !
 ! A67   A(15,17,20)           119.4344         calculate D2E/DX2 analytically  !
 ! A68   A(18,17,20)           100.8835         calculate D2E/DX2 analytically  !
 ! A69   A(2,18,17)            108.3309         calculate D2E/DX2 analytically  !
 ! A70   A(2,19,20)            106.2584         calculate D2E/DX2 analytically  !
 ! A71   A(2,19,43)            123.9109         calculate D2E/DX2 analytically  !
 ! A72   A(20,19,43)           129.6901         calculate D2E/DX2 analytically  !
 ! A73   A(17,20,19)           113.056          calculate D2E/DX2 analytically  !
 ! A74   A(17,20,21)           119.7814         calculate D2E/DX2 analytically  !
 ! A75   A(19,20,21)           127.1419         calculate D2E/DX2 analytically  !
 ! A76   A(1,21,20)            121.9969         calculate D2E/DX2 analytically  !
 ! A77   A(1,22,23)            126.2746         calculate D2E/DX2 analytically  !
 ! A78   A(1,22,44)            115.6689         calculate D2E/DX2 analytically  !
 ! A79   A(23,22,44)           117.5966         calculate D2E/DX2 analytically  !
 ! A80   A(13,23,22)           122.2915         calculate D2E/DX2 analytically  !
 ! A81   A(13,23,24)           118.537          calculate D2E/DX2 analytically  !
 ! A82   A(22,23,24)           119.1715         calculate D2E/DX2 analytically  !
 ! A83   A(10,24,23)           120.903          calculate D2E/DX2 analytically  !
 ! A84   A(10,24,45)           119.0731         calculate D2E/DX2 analytically  !
 ! A85   A(23,24,45)           120.0209         calculate D2E/DX2 analytically  !
 ! A86   A(11,40,46)           108.9614         calculate D2E/DX2 analytically  !
 ! D1    D(21,1,14,15)          -0.3723         calculate D2E/DX2 analytically  !
 ! D2    D(22,1,14,15)         178.5919         calculate D2E/DX2 analytically  !
 ! D3    D(14,1,21,20)          -0.941          calculate D2E/DX2 analytically  !
 ! D4    D(22,1,21,20)         179.9229         calculate D2E/DX2 analytically  !
 ! D5    D(14,1,22,23)         -18.1806         calculate D2E/DX2 analytically  !
 ! D6    D(14,1,22,44)         169.8348         calculate D2E/DX2 analytically  !
 ! D7    D(21,1,22,23)         160.8303         calculate D2E/DX2 analytically  !
 ! D8    D(21,1,22,44)         -11.1542         calculate D2E/DX2 analytically  !
 ! D9    D(19,2,18,17)           0.3509         calculate D2E/DX2 analytically  !
 ! D10   D(25,2,18,17)         179.0796         calculate D2E/DX2 analytically  !
 ! D11   D(18,2,19,20)          -0.0571         calculate D2E/DX2 analytically  !
 ! D12   D(18,2,19,43)         175.9999         calculate D2E/DX2 analytically  !
 ! D13   D(25,2,19,20)        -178.8468         calculate D2E/DX2 analytically  !
 ! D14   D(25,2,19,43)          -2.7898         calculate D2E/DX2 analytically  !
 ! D15   D(16,3,4,5)           129.1727         calculate D2E/DX2 analytically  !
 ! D16   D(16,3,4,9)          -108.5107         calculate D2E/DX2 analytically  !
 ! D17   D(16,3,4,28)           11.4065         calculate D2E/DX2 analytically  !
 ! D18   D(26,3,4,5)            10.9489         calculate D2E/DX2 analytically  !
 ! D19   D(26,3,4,9)           133.2654         calculate D2E/DX2 analytically  !
 ! D20   D(26,3,4,28)         -106.8174         calculate D2E/DX2 analytically  !
 ! D21   D(27,3,4,5)          -104.0769         calculate D2E/DX2 analytically  !
 ! D22   D(27,3,4,9)            18.2396         calculate D2E/DX2 analytically  !
 ! D23   D(27,3,4,28)          138.1568         calculate D2E/DX2 analytically  !
 ! D24   D(4,3,16,15)          163.4859         calculate D2E/DX2 analytically  !
 ! D25   D(26,3,16,15)         -77.4545         calculate D2E/DX2 analytically  !
 ! D26   D(27,3,16,15)          43.9225         calculate D2E/DX2 analytically  !
 ! D27   D(3,4,5,6)            164.9645         calculate D2E/DX2 analytically  !
 ! D28   D(3,4,5,29)            45.8044         calculate D2E/DX2 analytically  !
 ! D29   D(3,4,5,30)           -70.7837         calculate D2E/DX2 analytically  !
 ! D30   D(9,4,5,6)             45.3994         calculate D2E/DX2 analytically  !
 ! D31   D(9,4,5,29)           -73.7607         calculate D2E/DX2 analytically  !
 ! D32   D(9,4,5,30)           169.6512         calculate D2E/DX2 analytically  !
 ! D33   D(28,4,5,6)           -75.5363         calculate D2E/DX2 analytically  !
 ! D34   D(28,4,5,29)          165.3036         calculate D2E/DX2 analytically  !
 ! D35   D(28,4,5,30)           48.7155         calculate D2E/DX2 analytically  !
 ! D36   D(3,4,9,8)           -164.5526         calculate D2E/DX2 analytically  !
 ! D37   D(3,4,9,37)            70.7518         calculate D2E/DX2 analytically  !
 ! D38   D(3,4,9,38)           -45.9818         calculate D2E/DX2 analytically  !
 ! D39   D(5,4,9,8)            -46.1023         calculate D2E/DX2 analytically  !
 ! D40   D(5,4,9,37)          -170.7978         calculate D2E/DX2 analytically  !
 ! D41   D(5,4,9,38)            72.4686         calculate D2E/DX2 analytically  !
 ! D42   D(28,4,9,8)            74.3803         calculate D2E/DX2 analytically  !
 ! D43   D(28,4,9,37)          -50.3152         calculate D2E/DX2 analytically  !
 ! D44   D(28,4,9,38)         -167.0488         calculate D2E/DX2 analytically  !
 ! D45   D(4,5,6,7)            -48.1359         calculate D2E/DX2 analytically  !
 ! D46   D(4,5,6,31)          -173.8634         calculate D2E/DX2 analytically  !
 ! D47   D(4,5,6,32)            71.1339         calculate D2E/DX2 analytically  !
 ! D48   D(29,5,6,7)            72.9625         calculate D2E/DX2 analytically  !
 ! D49   D(29,5,6,31)          -52.765          calculate D2E/DX2 analytically  !
 ! D50   D(29,5,6,32)         -167.7677         calculate D2E/DX2 analytically  !
 ! D51   D(30,5,6,7)          -172.588          calculate D2E/DX2 analytically  !
 ! D52   D(30,5,6,31)           61.6846         calculate D2E/DX2 analytically  !
 ! D53   D(30,5,6,32)          -53.3181         calculate D2E/DX2 analytically  !
 ! D54   D(5,6,7,8)             48.8375         calculate D2E/DX2 analytically  !
 ! D55   D(5,6,7,33)           -71.3873         calculate D2E/DX2 analytically  !
 ! D56   D(5,6,7,34)           172.1111         calculate D2E/DX2 analytically  !
 ! D57   D(31,6,7,8)           174.8605         calculate D2E/DX2 analytically  !
 ! D58   D(31,6,7,33)           54.6357         calculate D2E/DX2 analytically  !
 ! D59   D(31,6,7,34)          -61.8659         calculate D2E/DX2 analytically  !
 ! D60   D(32,6,7,8)           -70.2741         calculate D2E/DX2 analytically  !
 ! D61   D(32,6,7,33)          169.5011         calculate D2E/DX2 analytically  !
 ! D62   D(32,6,7,34)           52.9995         calculate D2E/DX2 analytically  !
 ! D63   D(6,7,8,9)            -48.5808         calculate D2E/DX2 analytically  !
 ! D64   D(6,7,8,35)          -175.4239         calculate D2E/DX2 analytically  !
 ! D65   D(6,7,8,36)            71.0503         calculate D2E/DX2 analytically  !
 ! D66   D(33,7,8,9)            71.8045         calculate D2E/DX2 analytically  !
 ! D67   D(33,7,8,35)          -55.0386         calculate D2E/DX2 analytically  !
 ! D68   D(33,7,8,36)         -168.5644         calculate D2E/DX2 analytically  !
 ! D69   D(34,7,8,9)          -171.8623         calculate D2E/DX2 analytically  !
 ! D70   D(34,7,8,35)           61.2946         calculate D2E/DX2 analytically  !
 ! D71   D(34,7,8,36)          -52.2312         calculate D2E/DX2 analytically  !
 ! D72   D(7,8,9,4)             48.3294         calculate D2E/DX2 analytically  !
 ! D73   D(7,8,9,37)           173.2037         calculate D2E/DX2 analytically  !
 ! D74   D(7,8,9,38)           -73.1317         calculate D2E/DX2 analytically  !
 ! D75   D(35,8,9,4)           174.0518         calculate D2E/DX2 analytically  !
 ! D76   D(35,8,9,37)          -61.0739         calculate D2E/DX2 analytically  !
 ! D77   D(35,8,9,38)           52.5907         calculate D2E/DX2 analytically  !
 ! D78   D(36,8,9,4)           -71.4813         calculate D2E/DX2 analytically  !
 ! D79   D(36,8,9,37)           53.393          calculate D2E/DX2 analytically  !
 ! D80   D(36,8,9,38)          167.0576         calculate D2E/DX2 analytically  !
 ! D81   D(24,10,11,12)         -1.3182         calculate D2E/DX2 analytically  !
 ! D82   D(24,10,11,40)        178.6346         calculate D2E/DX2 analytically  !
 ! D83   D(39,10,11,12)        178.4156         calculate D2E/DX2 analytically  !
 ! D84   D(39,10,11,40)         -1.6316         calculate D2E/DX2 analytically  !
 ! D85   D(11,10,24,23)         -1.4708         calculate D2E/DX2 analytically  !
 ! D86   D(11,10,24,45)        179.1562         calculate D2E/DX2 analytically  !
 ! D87   D(39,10,24,23)        178.7908         calculate D2E/DX2 analytically  !
 ! D88   D(39,10,24,45)         -0.5822         calculate D2E/DX2 analytically  !
 ! D89   D(10,11,12,13)          1.8884         calculate D2E/DX2 analytically  !
 ! D90   D(10,11,12,41)       -178.7107         calculate D2E/DX2 analytically  !
 ! D91   D(40,11,12,13)       -178.0639         calculate D2E/DX2 analytically  !
 ! D92   D(40,11,12,41)          1.3369         calculate D2E/DX2 analytically  !
 ! D93   D(10,11,40,46)         11.5662         calculate D2E/DX2 analytically  !
 ! D94   D(12,11,40,46)       -168.481          calculate D2E/DX2 analytically  !
 ! D95   D(11,12,13,23)          0.2989         calculate D2E/DX2 analytically  !
 ! D96   D(11,12,13,42)        179.3184         calculate D2E/DX2 analytically  !
 ! D97   D(41,12,13,23)       -179.1022         calculate D2E/DX2 analytically  !
 ! D98   D(41,12,13,42)         -0.0827         calculate D2E/DX2 analytically  !
 ! D99   D(12,13,23,22)        177.0003         calculate D2E/DX2 analytically  !
 ! D100  D(12,13,23,24)         -2.9989         calculate D2E/DX2 analytically  !
 ! D101  D(42,13,23,22)         -2.0057         calculate D2E/DX2 analytically  !
 ! D102  D(42,13,23,24)        177.9951         calculate D2E/DX2 analytically  !
 ! D103  D(1,14,15,16)        -179.5335         calculate D2E/DX2 analytically  !
 ! D104  D(1,14,15,17)           1.1588         calculate D2E/DX2 analytically  !
 ! D105  D(14,15,16,3)          18.2854         calculate D2E/DX2 analytically  !
 ! D106  D(17,15,16,3)        -162.4339         calculate D2E/DX2 analytically  !
 ! D107  D(14,15,17,18)       -179.8954         calculate D2E/DX2 analytically  !
 ! D108  D(14,15,17,20)         -0.6675         calculate D2E/DX2 analytically  !
 ! D109  D(16,15,17,18)          0.806          calculate D2E/DX2 analytically  !
 ! D110  D(16,15,17,20)       -179.9661         calculate D2E/DX2 analytically  !
 ! D111  D(15,17,18,2)         178.8317         calculate D2E/DX2 analytically  !
 ! D112  D(20,17,18,2)          -0.4835         calculate D2E/DX2 analytically  !
 ! D113  D(15,17,20,19)       -179.0241         calculate D2E/DX2 analytically  !
 ! D114  D(15,17,20,21)         -0.5623         calculate D2E/DX2 analytically  !
 ! D115  D(18,17,20,19)          0.4672         calculate D2E/DX2 analytically  !
 ! D116  D(18,17,20,21)        178.9289         calculate D2E/DX2 analytically  !
 ! D117  D(2,19,20,17)          -0.2906         calculate D2E/DX2 analytically  !
 ! D118  D(2,19,20,21)        -178.6158         calculate D2E/DX2 analytically  !
 ! D119  D(43,19,20,17)       -176.0375         calculate D2E/DX2 analytically  !
 ! D120  D(43,19,20,21)          5.6373         calculate D2E/DX2 analytically  !
 ! D121  D(17,20,21,1)           1.4077         calculate D2E/DX2 analytically  !
 ! D122  D(19,20,21,1)         179.6321         calculate D2E/DX2 analytically  !
 ! D123  D(1,22,23,13)         -28.7116         calculate D2E/DX2 analytically  !
 ! D124  D(1,22,23,24)         151.2875         calculate D2E/DX2 analytically  !
 ! D125  D(44,22,23,13)        143.1356         calculate D2E/DX2 analytically  !
 ! D126  D(44,22,23,24)        -36.8652         calculate D2E/DX2 analytically  !
 ! D127  D(13,23,24,10)          3.5856         calculate D2E/DX2 analytically  !
 ! D128  D(13,23,24,45)       -177.0473         calculate D2E/DX2 analytically  !
 ! D129  D(22,23,24,10)       -176.4136         calculate D2E/DX2 analytically  !
 ! D130  D(22,23,24,45)          2.9536         calculate D2E/DX2 analytically  !
 --------------------------------------------------------------------------------
 Trust Radius=3.00D-01 FncErr=1.00D-07 GrdErr=1.00D-07 EigMax=2.50D+02 EigMin=1.00D-04
 Number of steps in this run=    275 maximum allowed number of steps=    276.
 GradGradGradGradGradGradGradGradGradGradGradGradGradGradGradGradGradGrad

 Leave Link  103 at Thu Jan 30 14:39:55 2025, MaxMem=   104857600 cpu:               0.0 elap:               0.0
 (Enter /home/pb777/GAUSSIAN/g16/l202.exe)
                          Input orientation:                          
 ---------------------------------------------------------------------
 Center     Atomic      Atomic             Coordinates (Angstroms)
 Number     Number       Type             X           Y           Z
 ---------------------------------------------------------------------
      1          6           0        1.422000   29.034000    6.768000
      2          6           0       -1.450000   32.163000    8.008000
      3          6           0       -0.582000   26.625000    8.978000
      4          6           0       -1.250000   25.767000   10.081000
      5          6           0       -1.355000   24.331000    9.527000
      6          6           0       -1.653000   23.273000   10.603000
      7          6           0       -0.781000   23.343000   11.865000
      8          6           0       -0.712000   24.779000   12.432000
      9          6           0       -0.388000   25.860000   11.380000
     10          6           0        4.731000   25.846000    5.404000
     11          6           0        4.696000   25.144000    6.604000
     12          6           0        3.992000   25.648000    7.692000
     13          6           0        3.286000   26.846000    7.561000
     14          7           0        0.488000   28.180000    7.498000
     15          6           0       -0.568000   28.637000    8.086000
     16          8           0       -1.389000   27.808000    8.752000
     17          6           0       -0.837000   30.059000    7.987000
     18          7           0       -1.806000   31.022000    8.425000
     19          7           0       -0.337000   32.096000    7.318000
     20          6           0        0.012000   30.844000    7.311000
     21          7           0        1.172000   30.278000    6.709000
     22          7           0        2.523000   28.721000    6.157000
     23          6           0        3.274000   27.543000    6.343000
     24          6           0        4.034000   27.047000    5.284000
     25          1           0       -1.973000   33.085000    8.159000
     26          1           0       -0.540000   26.054000    8.043000
     27          1           0        0.453000   26.776000    9.312000
     28          1           0       -2.258000   26.125000   10.296000
     29          1           0       -0.409000   24.042000    9.063000
     30          1           0       -2.106000   24.282000    8.736000
     31          1           0       -1.609000   22.271000   10.176000
     32          1           0       -2.684000   23.422000   10.916000
     33          1           0        0.230000   23.014000   11.618000
     34          1           0       -1.152000   22.652000   12.623000
     35          1           0       -0.027000   24.811000   13.272000
     36          1           0       -1.687000   25.018000   12.862000
     37          1           0       -0.474000   26.853000   11.824000
     38          1           0        0.671000   25.729000   11.147000
     39          1           0        5.295000   25.477000    4.561000
     40          8           0        5.361000   23.951000    6.703000
     41          1           0        3.983000   25.111000    8.631000
     42          1           0        2.734000   27.222000    8.409000
     43          1           0        0.089000   32.895000    6.844000
     44          1           0        2.927000   29.448000    5.583000
     45          1           0        4.080000   27.587000    4.356000
     46          1           0        5.934000   23.846000    5.932000
 ---------------------------------------------------------------------
                    Distance matrix (angstroms):
                    1          2          3          4          5
     1  C    0.000000
     2  C    4.424548   0.000000
     3  C    3.834501   5.688916   0.000000
     4  C    5.365523   6.726525   1.548870   0.000000
     5  C    6.118988   7.978509   2.482210   1.542737   0.000000
     6  C    7.573108   9.263225   3.876025   2.579715   1.538163
     7  C    7.951107   9.649684   4.375602   3.046045   2.602281
     8  C    7.398640   8.639437   3.918511   2.606298   3.008850
     9  C    5.883954   7.226758   2.528332   1.561760   2.589699
    10  C    4.793049   9.213581   6.450449   7.592953   7.505581
    11  C    5.087049   9.434558   5.973820   6.916110   6.769010
    12  C    4.350135   8.494730   4.850753   5.761948   5.804492
    13  C    2.981726   7.134423   4.125307   5.299994   5.632873
    14  N    1.461017   4.458725   2.398609   3.938921   4.725282
    15  C    2.419676   3.635476   2.200910   3.561186   4.608415
    16  O    3.652541   4.418516   1.449763   2.439517   3.562486
    17  C    2.763995   2.191581   3.583220   4.793398   5.953983
    18  N    4.137364   1.265901   4.597564   5.537734   6.796123
    19  N    3.573853   1.311243   5.722540   6.965916   8.137028
    20  C    2.357764   2.088783   4.575116   5.919584   7.014165
    21  N    1.270243   3.480734   4.644275   6.130709   7.049373
    22  N    1.297494   5.572997   4.689593   6.193498   6.757802
    23  C    2.415287   6.814162   4.759694   6.131345   6.471664
    24  C    3.601801   7.979216   5.927156   7.250535   7.377061
    25  H    5.465483   1.070707   6.658622   7.600654   8.881771
    26  H    3.788861   6.176504   1.096371   2.177134   2.415618
    27  H    3.536872   5.860170   1.097990   2.123594   3.048461
    28  H    5.869537   6.507323   2.190000   1.091079   2.150629
    29  H    5.791343   8.255141   2.590182   2.172379   1.092581
    30  H    6.237092   7.941693   2.805493   2.178758   1.091826
    31  H    8.157181  10.128039   4.631117   3.515668   2.174699
    32  H    8.096893   9.294316   4.293420   2.872735   2.126463
    33  H    7.822005   9.977911   4.546236   3.483070   2.935812
    34  H    9.035288  10.575734   5.421776   4.021765   3.527813
    35  H    7.888938   9.153498   4.694364   3.548541   4.002375
    36  H    7.932904   8.641094   4.346140   2.913062   3.421172
    37  H    5.823634   6.611394   2.857160   2.195364   3.523188
    38  H    5.537388   7.466480   2.660336   2.197280   2.946775
    39  H    5.702914  10.103437   7.440895   8.566885   8.378363
    40  O    6.430928  10.748474   6.902547   7.642909   7.295480
    41  H    5.041767   8.923919   4.822015   5.469655   5.468588
    42  H    2.774449   6.486921   3.417020   4.559042   5.131055
    43  H    4.085338   2.063793   6.657109   7.942259   9.089869
    44  H    1.959757   5.692976   5.639897   7.157450   7.750764
    45  H    3.869951   8.053433   6.634951   8.030998   8.178019
    46  H    6.926210  11.313961   7.710980   8.515533   8.141792
                    6          7          8          9         10
     6  C    0.000000
     7  C    1.535555   0.000000
     8  C    2.549266   1.545427   0.000000
     9  C    2.982704   2.593253   1.542803   0.000000
    10  C    8.625856   8.853907   8.953073   7.868731   0.000000
    11  C    7.733204   7.805079   7.958974   7.012124   1.390694
    12  C    6.780898   6.745998   6.734269   5.729807   2.412523
    13  C    6.812768   6.880110   6.631978   5.390291   2.782207
    14  N    6.188987   6.639098   6.111559   4.606485   5.275930
    15  C    6.023704   6.507891   5.813142   4.312142   6.562180
    16  O    4.905316   5.476920   4.814101   3.420978   7.246582
    17  C    7.318409   7.755429   6.903046   5.417163   7.444722
    18  N    8.050720   8.476513   7.498529   6.114654   8.868471
    19  N    9.506230   9.873568   8.934882   7.442455   8.271065
    20  C    8.421967   8.810946   7.970762   6.446473   7.133415
    21  N    8.497875   8.859615   8.157278   6.615933   5.831992
    22  N    8.178423   8.510027   8.085803   6.628648   3.702418
    23  C    7.788185   8.035889   7.784845   6.450899   2.425774
    24  C    8.653139   8.956193   8.874810   7.623927   1.393775
    25  H   10.116861  10.491037   9.425406   8.067694  10.243865
    26  H    3.940346   4.692045   4.573678   3.346089   5.898392
    27  H    4.286365   4.452646   3.883250   2.413081   5.868445
    28  H    2.931583   3.518922   2.960461   2.177655   8.535551
    29  H    2.123793   2.911733   3.461956   2.945175   6.562187
    30  H    2.170018   3.525335   3.981289   3.525953   7.764850
    31  H    1.090078   2.165061   3.490589   3.977610   8.703345
    32  H    1.087718   2.127969   2.833459   3.380940   9.551971
    33  H    2.154761   1.091499   2.159904   2.922034   8.178815
    34  H    2.171875   1.090727   2.180415   3.524203   9.845064
    35  H    3.483229   2.168684   1.084366   2.193259   9.252849
    36  H    2.854691   2.149528   1.092083   2.143056   9.874111
    37  H    3.961980   3.523639   2.174347   1.091137   8.326012
    38  H    3.424741   2.883890   2.113389   1.092214   7.034155
    39  H    9.467739   9.737564   9.925920   8.884928   1.079308
    40  O    8.053936   8.046122   8.389777   7.653079   2.382294
    41  H    6.247521   6.023311   6.049864   5.217628   3.393119
    42  H    6.297143   6.272623   5.833326   4.519820   3.861529
    43  H   10.476045  10.826266   9.886192   8.384155   8.562136
    44  H    9.181907   9.512298   9.052662   7.580777   4.032476
    45  H    9.513301   9.900805   9.801526   8.501890   2.133820
    46  H    8.927997   8.974671   9.342901   8.585137   2.392905
                   11         12         13         14         15
    11  C    0.000000
    12  C    1.390459   0.000000
    13  C    2.408475   1.396711   0.000000
    14  N    5.265339   4.327433   3.100376   0.000000
    15  C    6.488996   5.466531   4.282128   1.292180   0.000000
    16  O    6.981262   5.894435   4.919304   2.287800   1.343443
    17  C    7.528878   6.546998   5.244423   2.350614   1.450602
    18  N    8.952258   7.939393   6.641832   3.768120   2.708466
    19  N    8.612270   7.775398   6.383391   4.006006   3.550756
    20  C    7.411458   6.556217   5.173546   2.712645   2.409953
    21  N    6.227966   5.509591   4.119894   2.343498   2.759821
    22  N    4.209117   3.735976   2.463536   2.496435   3.644500
    23  C    2.800965   2.434410   1.403381   3.082465   4.358423
    24  C    2.408745   2.785216   2.405127   4.331236   5.617625
    25  H   10.485851   9.545066   8.181675   5.527429   4.665196
    26  H    5.505862   4.563667   3.936733   2.423569   2.583510
    27  H    5.291478   4.052321   3.331184   2.294131   2.451293
    28  H    7.934188   6.787551   6.223825   4.426324   3.748379
    29  H    5.772531   4.881360   4.875597   4.514076   4.700408
    30  H    7.180228   6.335732   6.085095   4.843128   4.664115
    31  H    7.795277   6.996112   7.192348   6.818018   6.780689
    32  H    8.719119   7.740687   7.656416   6.662047   6.299411
    33  H    7.044306   6.041860   6.362595   6.612754   6.688046
    34  H    8.754286   7.729910   7.931540   7.714532   7.532971
    35  H    8.178010   6.927433   6.908887   6.704809   6.467268
    36  H    8.939862   7.705637   7.494859   6.595556   6.095859
    37  H    7.543075   6.202468   5.684261   4.626084   4.142962
    38  H    6.097680   4.792977   4.576605   4.399556   4.400148
    39  H    2.154887   3.395616   3.861378   6.248154   7.535648
    40  O    1.369407   2.394179   3.663716   6.500969   7.682729
    41  H    2.148997   1.081744   2.154283   4.787220   5.782845
    42  H    3.380171   2.138721   1.079437   2.606185   3.606904
    43  H    9.019981   8.274752   6.879339   4.776834   4.483835
    44  H    4.764055   4.474607   3.288125   3.350190   4.374672
    45  H    3.376568   3.859580   3.384013   4.808979   6.051389
    46  H    1.915472   3.180592   4.320364   7.134061   8.358792
                   16         17         18         19         20
    16  O    0.000000
    17  C    2.440682   0.000000
    18  N    3.257394   1.434634   0.000000
    19  N    4.642198   2.201574   2.129997   0.000000
    20  C    3.640958   1.339404   2.139580   1.299752   0.000000
    21  N    4.102861   2.391093   3.516628   2.439895   1.424205
    22  N    4.782399   4.053239   5.401728   4.573636   3.484819
    23  C    5.255195   5.092476   6.499582   5.892347   4.740703
    24  C    6.481904   6.332850   7.731242   6.981060   5.890876
    25  H    5.342231   3.236782   2.086771   2.088516   3.111496
    26  H    2.073644   4.016388   5.140983   6.088727   4.876949
    27  H    2.184396   3.767999   4.890641   5.736073   4.554899
    28  H    2.443683   4.777769   5.261706   6.943455   6.027610
    29  H    3.903829   6.127418   7.146961   8.241185   7.036615
    30  H    3.598197   5.961970   6.753838   8.136257   7.041051
    31  H    5.721411   8.126540   8.926635  10.311003   9.183256
    32  H    5.059340   7.486002   8.045866   9.679478   8.680468
    33  H    5.815286   7.997167   8.858251  10.064503   8.939053
    34  H    6.451755   8.743876   9.386577  10.862614   9.832655
    35  H    5.591731   7.491918   8.076805   9.413684   8.481281
    36  H    4.976445   7.063979   7.466535   9.091563   8.224505
    37  H    3.344613   5.013260   5.541479   6.914612   6.044125
    38  H    3.781781   5.568533   6.446756   7.497733   6.427472
    39  H    8.226415   8.386514   9.803149   9.117655   8.017311
    40  O    8.039736   8.796108  10.214216   9.959240   8.746137
    41  H    6.012224   6.937567   8.276163   8.317247   7.097783
    42  H    4.178537   4.580250   5.920461   5.863207   4.661949
    43  H    5.630499   3.194812   3.098179   1.022034   2.104904
    44  H    5.600002   4.507797   5.740708   4.547068   3.664973
    45  H    7.020229   6.593317   7.937316   6.972404   5.990718
    46  H    8.790687   9.416519  10.845166  10.455091   9.270584
                   21         22         23         24         25
    21  N    0.000000
    22  N    2.134046   0.000000
    23  C    3.468802   1.409355   0.000000
    24  C    4.545441   2.418166   1.394667   0.000000
    25  H    4.457889   6.577729   7.844911   8.989278   0.000000
    26  H    4.748966   4.477930   4.433251   5.433195   7.176483
    27  H    4.422282   4.245227   4.166688   5.396461   6.856994
    28  H    6.471389   6.835825   6.945499   8.096882   7.286261
    29  H    6.850443   6.239752   5.763670   6.561335   9.221668
    30  H    7.127835   6.912568   6.730897   7.567108   8.822892
    31  H    9.157844   8.650334   8.144296   8.864834  11.006515
    32  H    8.920332   8.822717   8.566956   9.486389  10.073735
    33  H    8.817672   8.224975   7.589691   8.417545  10.873957
    34  H    9.926341   9.599351   9.107676  10.003576  11.377558
    35  H    8.625466   8.509631   8.146868   9.235776   9.919111
    36  H    8.584922   8.740328   8.572310   9.709416   9.342189
    37  H    6.372061   6.677299   6.675700   7.945521   7.383566
    38  H    6.374970   6.105904   5.757137   6.886339   8.368370
    39  H    6.683011   4.555737   3.395338   2.139568  11.119851
    40  O    7.588062   5.577209   4.169848   3.655093  11.804128
    41  H    6.188190   4.613499   3.413539   3.866925   9.964005
    42  H    3.830010   2.713490   2.159397   3.389137   7.522840
    43  H    2.835455   4.880430   6.248130   7.224661   2.452992
    44  H    2.244282   1.010555   2.080152   2.660761   6.623711
    45  H    4.608097   2.637007   2.144701   1.074663   9.018294
    46  H    8.040584   5.954089   4.573000   3.778400  12.362819
                   26         27         28         29         30
    26  H    0.000000
    27  H    1.765699   0.000000
    28  H    2.834180   2.956616   0.000000
    29  H    2.259581   2.877464   3.045978   0.000000
    30  H    2.464262   3.619433   2.419370   1.744803   0.000000
    31  H    4.472532   5.029251   3.910104   2.411475   2.522842
    32  H    4.447279   4.864453   2.805724   2.998939   2.413728
    33  H    4.755536   4.418145   4.197160   2.827212   3.920541
    34  H    5.737992   5.526855   4.324337   3.893295   4.321549
    35  H    5.399135   4.446709   3.944684   4.295692   5.017706
    36  H    5.060797   4.502518   2.852340   4.125320   4.212022
    37  H    3.865064   2.678694   2.459151   3.940694   4.336958
    38  H    3.347680   2.123902   3.075721   2.890575   3.952020
    39  H    6.819419   6.906835   9.505679   7.406946   8.580994
    40  O    6.406248   6.235060   8.699718   6.234644   7.745885
    41  H    4.657523   3.961930   6.538387   4.540820   6.146071
    42  H    3.495319   2.493449   5.448325   4.518691   5.672401
    43  H    6.973702   6.608001   7.953465   9.140436   9.087434
    44  H    5.439754   5.212073   7.754929   7.243213   7.871471
    45  H    6.106428   6.194739   8.808592   7.407698   8.268859
    46  H    7.158510   7.074649   9.557573   7.076385   8.526084
                   31         32         33         34         35
    31  H    0.000000
    32  H    1.740122   0.000000
    33  H    2.452210   3.025006   0.000000
    34  H    2.518297   2.419457   1.746709   0.000000
    35  H    4.305757   3.813097   2.455804   2.519545   0.000000
    36  H    3.842745   2.707054   3.039480   2.437479   1.722367
    37  H    4.999885   4.180948   3.908449   4.329721   2.542888
    38  H    4.254293   4.078190   2.790618   3.869087   2.417758
    39  H    9.458958  10.405455   9.028945  10.702349  10.229798
    40  O    7.966494   9.096771   7.166753   8.896795   8.539432
    41  H    6.459341   7.247264   5.234939   6.953486   6.140764
    42  H    6.818822   7.076706   5.854482   7.331009   6.089730
    43  H   11.262984  10.677474  10.974749  11.826072  10.328780
    44  H    9.652993   9.810040   9.224499  10.601201   9.452439
    45  H    9.720956  10.302064   9.405928  10.957707  10.201406
    46  H    8.797102   9.964435   8.096816   9.818682   9.504754
                   36         37         38         39         40
    36  H    0.000000
    37  H    2.432291   0.000000
    38  H    3.001151   1.741474   0.000000
    39  H   10.856593   9.376881   8.051104   0.000000
    40  O    9.420513   8.288152   6.701233   2.630817   0.000000
    41  H    7.075232   5.752796   4.204940   4.291876   2.638497
    42  H    6.650719   4.699963   3.739206   4.940734   4.528908
    43  H   10.070632   7.850040   8.378907   9.345654  10.383111
    44  H    9.690084   7.566433   7.062478   4.735055   6.115208
    45  H   10.592926   8.777739   7.822476   2.443430   4.513299
    46  H   10.367166   9.209787   7.644677   2.224438   0.966331
                   41         42         43         44         45
    41  H    0.000000
    42  H    2.462845   0.000000
    43  H    8.885227   6.451990   0.000000
    44  H    5.405091   3.602583   4.639631   0.000000
    45  H    4.941215   4.286228   7.091762   2.509633   0.000000
    46  H    3.562475   5.270000  10.811113   6.367594   4.462754
                   46
    46  H    0.000000
 Stoichiometry    C18H21N5O2
 Framework group  C1[X(C18H21N5O2)]
 Deg. of freedom   132
 Full point group                 C1      NOp   1
 Largest Abelian subgroup         C1      NOp   1
 Largest concise Abelian subgroup C1      NOp   1
                         Standard orientation:                         
 ---------------------------------------------------------------------
 Center     Atomic      Atomic             Coordinates (Angstroms)
 Number     Number       Type             X           Y           Z
 ---------------------------------------------------------------------
      1          6           0       -2.354099    0.016019   -0.129830
      2          6           0       -3.286331   -4.286336    0.314364
      3          6           0        1.317133   -1.037315   -0.470329
      4          6           0        2.793968   -1.482670   -0.330278
      5          6           0        3.613403   -0.628423   -1.319633
      6          6           0        5.129700   -0.670231   -1.064600
      7          6           0        5.566430   -0.447166    0.390541
      8          6           0        4.764155   -1.333989    1.369442
      9          6           0        3.236886   -1.291885    1.155158
     10          6           0       -1.565151    4.733299   -0.443130
     11          6           0       -0.323439    4.669895    0.179895
     12          6           0        0.101990    3.489506    0.779118
     13          6           0       -0.709076    2.354085    0.717540
     14          7           0       -1.023198   -0.514651   -0.415602
     15          6           0       -0.754158   -1.778454   -0.403489
     16          8           0        0.490225   -2.212150   -0.664747
     17          6           0       -1.837517   -2.699237   -0.115844
     18          7           0       -2.069123   -4.108967    0.015283
     19          7           0       -3.930713   -3.147455    0.398509
     20          6           0       -3.061183   -2.217244    0.137782
     21          7           0       -3.282028   -0.810271    0.134195
     22          7           0       -2.759744    1.247546   -0.082049
     23          6           0       -1.944624    2.389313    0.052968
     24          6           0       -2.374634    3.599670   -0.490380
     25          1           0       -3.771256   -5.228772    0.466274
     26          1           0        1.209571   -0.392054   -1.350158
     27          1           0        1.113940   -0.417289    0.412769
     28          1           0        2.912170   -2.531887   -0.605278
     29          1           0        3.315426    0.419741   -1.240300
     30          1           0        3.398644   -0.925772   -2.348003
     31          1           0        5.646678    0.031310   -1.719461
     32          1           0        5.471929   -1.661138   -1.354621
     33          1           0        5.406616    0.599988    0.653787
     34          1           0        6.635970   -0.631232    0.499584
     35          1           0        5.037980   -1.095927    2.391301
     36          1           0        5.089028   -2.367332    1.230494
     37          1           0        2.747937   -2.027343    1.795948
     38          1           0        2.919201   -0.315302    1.527035
     39          1           0       -1.916387    5.651163   -0.889297
     40          8           0        0.476401    5.781317    0.196440
     41          1           0        1.059166    3.447866    1.281365
     42          1           0       -0.363605    1.440288    1.176677
     43          1           0       -4.935249   -3.072084    0.571078
     44          1           0       -3.760208    1.376882   -0.022349
     45          1           0       -3.337761    3.665044   -0.962623
     46          1           0       -0.039870    6.544080   -0.095883
 ---------------------------------------------------------------------
 Rotational constants (GHZ):           0.1813916           0.1752459           0.0940251
 Leave Link  202 at Thu Jan 30 14:39:55 2025, MaxMem=   104857600 cpu:               0.0 elap:               0.0
 (Enter /home/pb777/GAUSSIAN/g16/l301.exe)
 Standard basis: 6-31G(d) (6D, 7F)
 Ernie: Thresh=  0.10000D-02 Tol=  0.10000D-05 Strict=F.
 There are   417 symmetry adapted cartesian basis functions of A   symmetry.
 There are   417 symmetry adapted basis functions of A   symmetry.
   417 basis functions,   784 primitive gaussians,   417 cartesian basis functions
    90 alpha electrons       90 beta electrons
       nuclear repulsion energy      2112.7947699999 Hartrees.
 IExCor=    0 DFT=F Ex=HF Corr=None ExCW=0 ScaHFX=  1.000000
 ScaDFX=  1.000000  1.000000  1.000000  1.000000 ScalE2=  1.000000  1.000000
 IRadAn=      5 IRanWt=     -1 IRanGd=            0 ICorTp=0 IEmpDi=  4
 NAtoms=   46 NActive=   46 NUniq=   46 SFac= 1.00D+00 NAtFMM=   60 NAOKFM=F Big=F
 Integral buffers will be    131072 words long.
 Raffenetti 1 integral format.
 Two-electron integral symmetry is turned on.
 Leave Link  301 at Thu Jan 30 14:39:55 2025, MaxMem=   104857600 cpu:               0.0 elap:               0.0
 (Enter /home/pb777/GAUSSIAN/g16/l302.exe)
 NPDir=0 NMtPBC=     1 NCelOv=     1 NCel=       1 NClECP=     1 NCelD=      1
         NCelK=      1 NCelE2=     1 NClLst=     1 CellRange=     0.0.
 One-electron integrals computed using PRISM.
 One-electron integral symmetry used in STVInt
 NBasis=   417 RedAO= T EigKep=  4.11D-04  NBF=   417
 NBsUse=   417 1.00D-06 EigRej= -1.00D+00 NBFU=   417
 Leave Link  302 at Thu Jan 30 14:39:55 2025, MaxMem=   104857600 cpu:               0.2 elap:               0.2
 (Enter /home/pb777/GAUSSIAN/g16/l303.exe)
 DipDrv:  MaxL=1.
 Leave Link  303 at Thu Jan 30 14:39:55 2025, MaxMem=   104857600 cpu:               0.1 elap:               0.0
 (Enter /home/pb777/GAUSSIAN/g16/l401.exe)
 ExpMin= 1.61D-01 ExpMax= 5.48D+03 ExpMxC= 8.25D+02 IAcc=3 IRadAn=         5 AccDes= 0.00D+00
 Harris functional with IExCor=  205 and IRadAn=       5 diagonalized for initial guess.
 HarFok:  IExCor=  205 AccDes= 0.00D+00 IRadAn=         5 IDoV= 1 UseB2=F ITyADJ=14
 ICtDFT=  3500011 ScaDFX=  1.000000  1.000000  1.000000  1.000000
 FoFCou: FMM=F IPFlag=           0 FMFlag=      100000 FMFlg1=           0
         NFxFlg=           0 DoJE=T BraDBF=F KetDBF=T FulRan=T
         wScrn=  0.000000 ICntrl=       500 IOpCl=  0 I1Cent=   200000004 NGrid=           0
         NMat0=    1 NMatS0=      1 NMatT0=    0 NMatD0=    1 NMtDS0=    0 NMtDT0=    0
 Petite list used in FoFCou.
 Harris En= -1117.17059499792    
 JPrj=0 DoOrth=F DoCkMO=F.
 Leave Link  401 at Thu Jan 30 14:40:03 2025, MaxMem=   104857600 cpu:               7.3 elap:               7.5
 (Enter /home/pb777/GAUSSIAN/g16/l502.exe)
 Integral symmetry usage will be decided dynamically.
 Closed shell SCF:
 Using DIIS extrapolation, IDIIS=  1040.
 NGot=   104857600 LenX=   104502661 LenY=   104328331
 Requested convergence on RMS density matrix=1.00D-08 within 128 cycles.
 Requested convergence on MAX density matrix=1.00D-06.
 Requested convergence on             energy=1.00D-06.
 No special actions if energy rises.
 Fock matrices will be formed incrementally for  20 cycles.
 Integral accuracy reduced to 1.0D-05 until final iterations.

 Cycle   1  Pass 0  IDiag  1:
 FoFJK:  IHMeth= 1 ICntrl=       0 DoSepK=F KAlg= 0 I1Cent=           0 FoldK=F
 IRaf= 680000000 NMat=       1 IRICut=       1 DoRegI=T DoRafI=F ISym2E= 0 IDoP0=0 IntGTp=1.
 FoFCou: FMM=F IPFlag=           0 FMFlag=      100000 FMFlg1=           0
         NFxFlg=           0 DoJE=F BraDBF=F KetDBF=F FulRan=T
         wScrn=  0.000000 ICntrl=         0 IOpCl=  0 I1Cent=           0 NGrid=           0
         NMat0=    1 NMatS0=      1 NMatT0=    0 NMatD0=    1 NMtDS0=    0 NMtDT0=    0
 Symmetry not used in FoFCou.
 E= -1114.81264392408    
 DIIS: error= 5.18D-02 at cycle   1 NSaved=   1.
 NSaved= 1 IEnMin= 1 EnMin= -1114.81264392408     IErMin= 1 ErrMin= 5.18D-02
 ErrMax= 5.18D-02  0.00D+00 EMaxC= 1.00D-01 BMatC= 1.59D+00 BMatP= 1.59D+00
 IDIUse=3 WtCom= 4.82D-01 WtEn= 5.18D-01
 Coeff-Com:  0.100D+01
 Coeff-En:   0.100D+01
 Coeff:      0.100D+01
 Gap=     0.457 Goal=   None    Shift=    0.000
 GapD=    0.457 DampG=2.000 DampE=0.500 DampFc=1.0000 IDamp=-1.
 RMSDP=3.66D-03 MaxDP=1.37D-01              OVMax= 1.32D-01

 Cycle   2  Pass 0  IDiag  1:
 RMSU=  3.55D-03    CP:  9.46D-01
 E= -1115.62570023640     Delta-E=       -0.813056312327 Rises=F Damp=F
 DIIS: error= 1.33D-02 at cycle   2 NSaved=   2.
 NSaved= 2 IEnMin= 2 EnMin= -1115.62570023640     IErMin= 2 ErrMin= 1.33D-02
 ErrMax= 1.33D-02  0.00D+00 EMaxC= 1.00D-01 BMatC= 1.49D-01 BMatP= 1.59D+00
 IDIUse=3 WtCom= 8.67D-01 WtEn= 1.33D-01
 Coeff-Com:  0.144D+00 0.856D+00
 Coeff-En:   0.000D+00 0.100D+01
 Coeff:      0.124D+00 0.876D+00
 Gap=     0.461 Goal=   None    Shift=    0.000
 RMSDP=1.25D-03 MaxDP=3.40D-02 DE=-8.13D-01 OVMax= 5.48D-02

 Cycle   3  Pass 0  IDiag  1:
 RMSU=  1.08D-03    CP:  9.54D-01  8.30D-01
 E= -1115.74275014259     Delta-E=       -0.117049906189 Rises=F Damp=F
 DIIS: error= 4.42D-03 at cycle   3 NSaved=   3.
 NSaved= 3 IEnMin= 3 EnMin= -1115.74275014259     IErMin= 3 ErrMin= 4.42D-03
 ErrMax= 4.42D-03  0.00D+00 EMaxC= 1.00D-01 BMatC= 1.62D-02 BMatP= 1.49D-01
 IDIUse=3 WtCom= 9.56D-01 WtEn= 4.42D-02
 Coeff-Com: -0.225D-01 0.212D+00 0.810D+00
 Coeff-En:   0.000D+00 0.000D+00 0.100D+01
 Coeff:     -0.215D-01 0.203D+00 0.818D+00
 Gap=     0.408 Goal=   None    Shift=    0.000
 RMSDP=3.17D-04 MaxDP=1.60D-02 DE=-1.17D-01 OVMax= 1.79D-02

 Cycle   4  Pass 0  IDiag  1:
 RMSU=  1.92D-04    CP:  9.52D-01  8.89D-01  8.77D-01
 E= -1115.75801267636     Delta-E=       -0.015262533772 Rises=F Damp=F
 DIIS: error= 6.34D-04 at cycle   4 NSaved=   4.
 NSaved= 4 IEnMin= 4 EnMin= -1115.75801267636     IErMin= 4 ErrMin= 6.34D-04
 ErrMax= 6.34D-04  0.00D+00 EMaxC= 1.00D-01 BMatC= 5.75D-04 BMatP= 1.62D-02
 IDIUse=3 WtCom= 9.94D-01 WtEn= 6.34D-03
 Coeff-Com: -0.739D-02 0.256D-01 0.184D+00 0.798D+00
 Coeff-En:   0.000D+00 0.000D+00 0.000D+00 0.100D+01
 Coeff:     -0.735D-02 0.254D-01 0.183D+00 0.799D+00
 Gap=     0.406 Goal=   None    Shift=    0.000
 RMSDP=7.66D-05 MaxDP=3.28D-03 DE=-1.53D-02 OVMax= 5.68D-03

 Cycle   5  Pass 0  IDiag  1:
 RMSU=  5.84D-05    CP:  9.51D-01  8.90D-01  9.22D-01  9.44D-01
 E= -1115.75864512912     Delta-E=       -0.000632452758 Rises=F Damp=F
 DIIS: error= 3.26D-04 at cycle   5 NSaved=   5.
 NSaved= 5 IEnMin= 5 EnMin= -1115.75864512912     IErMin= 5 ErrMin= 3.26D-04
 ErrMax= 3.26D-04  0.00D+00 EMaxC= 1.00D-01 BMatC= 5.39D-05 BMatP= 5.75D-04
 IDIUse=3 WtCom= 9.97D-01 WtEn= 3.26D-03
 Coeff-Com:  0.161D-02-0.193D-01-0.680D-01 0.529D-01 0.103D+01
 Coeff-En:   0.000D+00 0.000D+00 0.000D+00 0.000D+00 0.100D+01
 Coeff:      0.160D-02-0.192D-01-0.677D-01 0.527D-01 0.103D+01
 Gap=     0.407 Goal=   None    Shift=    0.000
 RMSDP=3.53D-05 MaxDP=1.85D-03 DE=-6.32D-04 OVMax= 3.10D-03

 Cycle   6  Pass 0  IDiag  1:
 RMSU=  2.10D-05    CP:  9.51D-01  8.91D-01  9.36D-01  1.06D+00  1.15D+00
 E= -1115.75876244783     Delta-E=       -0.000117318707 Rises=F Damp=F
 DIIS: error= 1.67D-04 at cycle   6 NSaved=   6.
 NSaved= 6 IEnMin= 6 EnMin= -1115.75876244783     IErMin= 6 ErrMin= 1.67D-04
 ErrMax= 1.67D-04  0.00D+00 EMaxC= 1.00D-01 BMatC= 1.01D-05 BMatP= 5.39D-05
 IDIUse=3 WtCom= 9.98D-01 WtEn= 1.67D-03
 Coeff-Com:  0.108D-02-0.724D-02-0.344D-01-0.840D-01 0.245D+00 0.879D+00
 Coeff-En:   0.000D+00 0.000D+00 0.000D+00 0.000D+00 0.000D+00 0.100D+01
 Coeff:      0.108D-02-0.723D-02-0.344D-01-0.839D-01 0.245D+00 0.879D+00
 Gap=     0.407 Goal=   None    Shift=    0.000
 RMSDP=1.34D-05 MaxDP=5.70D-04 DE=-1.17D-04 OVMax= 1.37D-03

 Cycle   7  Pass 0  IDiag  1:
 RMSU=  7.75D-06    CP:  9.51D-01  8.91D-01  9.40D-01  1.08D+00  1.31D+00
                    CP:  1.04D+00
 E= -1115.75878169222     Delta-E=       -0.000019244393 Rises=F Damp=F
 DIIS: error= 4.68D-05 at cycle   7 NSaved=   7.
 NSaved= 7 IEnMin= 7 EnMin= -1115.75878169222     IErMin= 7 ErrMin= 4.68D-05
 ErrMax= 4.68D-05  0.00D+00 EMaxC= 1.00D-01 BMatC= 1.21D-06 BMatP= 1.01D-05
 IDIUse=1 WtCom= 1.00D+00 WtEn= 0.00D+00
 Coeff-Com: -0.107D-03 0.203D-02 0.653D-02-0.212D-01-0.107D+00 0.598D-01
 Coeff-Com:  0.106D+01
 Coeff:     -0.107D-03 0.203D-02 0.653D-02-0.212D-01-0.107D+00 0.598D-01
 Coeff:      0.106D+01
 Gap=     0.407 Goal=   None    Shift=    0.000
 RMSDP=5.98D-06 MaxDP=3.22D-04 DE=-1.92D-05 OVMax= 6.46D-04

 Initial convergence to 1.0D-05 achieved.  Increase integral accuracy.
 Cycle   8  Pass 1  IDiag  1:
 E= -1115.75878615958     Delta-E=       -0.000004467359 Rises=F Damp=F
 DIIS: error= 6.44D-05 at cycle   1 NSaved=   1.
 NSaved= 1 IEnMin= 1 EnMin= -1115.75878615958     IErMin= 1 ErrMin= 6.44D-05
 ErrMax= 6.44D-05  0.00D+00 EMaxC= 1.00D-01 BMatC= 1.17D-06 BMatP= 1.17D-06
 IDIUse=1 WtCom= 1.00D+00 WtEn= 0.00D+00
 Coeff-Com:  0.100D+01
 Coeff:      0.100D+01
 Gap=     0.407 Goal=   None    Shift=    0.000
 RMSDP=5.98D-06 MaxDP=3.22D-04 DE=-4.47D-06 OVMax= 2.62D-04

 Cycle   9  Pass 1  IDiag  1:
 RMSU=  2.47D-05    CP:  1.00D+00
 E= -1115.75878738773     Delta-E=       -0.000001228144 Rises=F Damp=F
 DIIS: error= 1.16D-05 at cycle   2 NSaved=   2.
 NSaved= 2 IEnMin= 2 EnMin= -1115.75878738773     IErMin= 2 ErrMin= 1.16D-05
 ErrMax= 1.16D-05  0.00D+00 EMaxC= 1.00D-01 BMatC= 9.23D-08 BMatP= 1.17D-06
 IDIUse=1 WtCom= 1.00D+00 WtEn= 0.00D+00
 Coeff-Com:  0.318D-01 0.968D+00
 Coeff:      0.318D-01 0.968D+00
 Gap=     0.408 Goal=   None    Shift=    0.000
 RMSDP=1.67D-06 MaxDP=6.88D-05 DE=-1.23D-06 OVMax= 1.69D-04

 Cycle  10  Pass 1  IDiag  1:
 RMSU=  1.28D-06    CP:  1.00D+00  1.04D+00
 E= -1115.75878758073     Delta-E=       -0.000000193004 Rises=F Damp=F
 DIIS: error= 1.54D-05 at cycle   3 NSaved=   3.
 NSaved= 3 IEnMin= 3 EnMin= -1115.75878758073     IErMin= 2 ErrMin= 1.16D-05
 ErrMax= 1.54D-05  0.00D+00 EMaxC= 1.00D-01 BMatC= 4.49D-08 BMatP= 9.23D-08
 IDIUse=1 WtCom= 1.00D+00 WtEn= 0.00D+00
 Coeff-Com: -0.497D-01 0.342D+00 0.707D+00
 Coeff:     -0.497D-01 0.342D+00 0.707D+00
 Gap=     0.408 Goal=   None    Shift=    0.000
 RMSDP=7.06D-07 MaxDP=4.50D-05 DE=-1.93D-07 OVMax= 8.69D-05

 Cycle  11  Pass 1  IDiag  1:
 RMSU=  6.76D-07    CP:  1.00D+00  1.05D+00  1.04D+00
 E= -1115.75878766421     Delta-E=       -0.000000083478 Rises=F Damp=F
 DIIS: error= 5.56D-06 at cycle   4 NSaved=   4.
 NSaved= 4 IEnMin= 4 EnMin= -1115.75878766421     IErMin= 4 ErrMin= 5.56D-06
 ErrMax= 5.56D-06  0.00D+00 EMaxC= 1.00D-01 BMatC= 9.24D-09 BMatP= 4.49D-08
 IDIUse=1 WtCom= 1.00D+00 WtEn= 0.00D+00
 Coeff-Com:  0.184D-01-0.518D+00-0.423D+00 0.192D+01
 Coeff:      0.184D-01-0.518D+00-0.423D+00 0.192D+01
 Gap=     0.408 Goal=   None    Shift=    0.000
 RMSDP=1.01D-06 MaxDP=5.78D-05 DE=-8.35D-08 OVMax= 1.42D-04

 Cycle  12  Pass 1  IDiag  1:
 RMSU=  2.72D-07    CP:  1.00D+00  1.05D+00  1.60D+00  1.98D+00
 E= -1115.75878772320     Delta-E=       -0.000000058991 Rises=F Damp=F
 DIIS: error= 1.46D-06 at cycle   5 NSaved=   5.
 NSaved= 5 IEnMin= 5 EnMin= -1115.75878772320     IErMin= 5 ErrMin= 1.46D-06
 ErrMax= 1.46D-06  0.00D+00 EMaxC= 1.00D-01 BMatC= 7.00D-10 BMatP= 9.24D-09
 IDIUse=1 WtCom= 1.00D+00 WtEn= 0.00D+00
 Coeff-Com:  0.808D-02-0.155D+00-0.167D+00 0.466D+00 0.849D+00
 Coeff:      0.808D-02-0.155D+00-0.167D+00 0.466D+00 0.849D+00
 Gap=     0.408 Goal=   None    Shift=    0.000
 RMSDP=1.75D-07 MaxDP=7.69D-06 DE=-5.90D-08 OVMax= 2.70D-05

 Cycle  13  Pass 1  IDiag  1:
 RMSU=  7.33D-08    CP:  1.00D+00  1.05D+00  1.67D+00  2.16D+00  1.20D+00
 E= -1115.75878772552     Delta-E=       -0.000000002318 Rises=F Damp=F
 DIIS: error= 6.32D-07 at cycle   6 NSaved=   6.
 NSaved= 6 IEnMin= 6 EnMin= -1115.75878772552     IErMin= 6 ErrMin= 6.32D-07
 ErrMax= 6.32D-07  0.00D+00 EMaxC= 1.00D-01 BMatC= 1.15D-10 BMatP= 7.00D-10
 IDIUse=1 WtCom= 1.00D+00 WtEn= 0.00D+00
 Coeff-Com: -0.525D-02 0.140D+00 0.114D+00-0.484D+00-0.865D-01 0.132D+01
 Coeff:     -0.525D-02 0.140D+00 0.114D+00-0.484D+00-0.865D-01 0.132D+01
 Gap=     0.408 Goal=   None    Shift=    0.000
 RMSDP=8.60D-08 MaxDP=2.89D-06 DE=-2.32D-09 OVMax= 1.33D-05

 Cycle  14  Pass 1  IDiag  1:
 RMSU=  4.57D-08    CP:  1.00D+00  1.05D+00  1.69D+00  2.21D+00  1.39D+00
                    CP:  1.43D+00
 E= -1115.75878772598     Delta-E=       -0.000000000461 Rises=F Damp=F
 DIIS: error= 2.30D-07 at cycle   7 NSaved=   7.
 NSaved= 7 IEnMin= 7 EnMin= -1115.75878772598     IErMin= 7 ErrMin= 2.30D-07
 ErrMax= 2.30D-07  0.00D+00 EMaxC= 1.00D-01 BMatC= 1.15D-11 BMatP= 1.15D-10
 IDIUse=1 WtCom= 1.00D+00 WtEn= 0.00D+00
 Coeff-Com: -0.135D-02 0.284D-01 0.267D-01-0.891D-01-0.942D-01 0.589D-01
 Coeff-Com:  0.107D+01
 Coeff:     -0.135D-02 0.284D-01 0.267D-01-0.891D-01-0.942D-01 0.589D-01
 Coeff:      0.107D+01
 Gap=     0.408 Goal=   None    Shift=    0.000
 RMSDP=2.58D-08 MaxDP=1.38D-06 DE=-4.61D-10 OVMax= 3.88D-06

 Cycle  15  Pass 1  IDiag  1:
 RMSU=  1.05D-08    CP:  1.00D+00  1.05D+00  1.69D+00  2.22D+00  1.42D+00
                    CP:  1.61D+00  1.33D+00
 E= -1115.75878772603     Delta-E=       -0.000000000051 Rises=F Damp=F
 DIIS: error= 1.09D-07 at cycle   8 NSaved=   8.
 NSaved= 8 IEnMin= 8 EnMin= -1115.75878772603     IErMin= 8 ErrMin= 1.09D-07
 ErrMax= 1.09D-07  0.00D+00 EMaxC= 1.00D-01 BMatC= 2.16D-12 BMatP= 1.15D-11
 IDIUse=1 WtCom= 1.00D+00 WtEn= 0.00D+00
 Coeff-Com:  0.596D-03-0.170D-01-0.137D-01 0.594D-01 0.392D-02-0.208D+00
 Coeff-Com:  0.173D+00 0.100D+01
 Coeff:      0.596D-03-0.170D-01-0.137D-01 0.594D-01 0.392D-02-0.208D+00
 Coeff:      0.173D+00 0.100D+01
 Gap=     0.408 Goal=   None    Shift=    0.000
 RMSDP=1.04D-08 MaxDP=3.91D-07 DE=-5.09D-11 OVMax= 1.45D-06

 Cycle  16  Pass 1  IDiag  1:
 RMSU=  4.78D-09    CP:  1.00D+00  1.05D+00  1.69D+00  2.22D+00  1.43D+00
                    CP:  1.65D+00  1.50D+00  1.16D+00
 E= -1115.75878772605     Delta-E=       -0.000000000022 Rises=F Damp=F
 DIIS: error= 5.25D-08 at cycle   9 NSaved=   9.
 NSaved= 9 IEnMin= 9 EnMin= -1115.75878772605     IErMin= 9 ErrMin= 5.25D-08
 ErrMax= 5.25D-08  0.00D+00 EMaxC= 1.00D-01 BMatC= 2.86D-13 BMatP= 2.16D-12
 IDIUse=1 WtCom= 1.00D+00 WtEn= 0.00D+00
 Coeff-Com:  0.192D-03-0.436D-02-0.389D-02 0.141D-01 0.134D-01-0.261D-01
 Coeff-Com: -0.102D+00 0.703D-01 0.104D+01
 Coeff:      0.192D-03-0.436D-02-0.389D-02 0.141D-01 0.134D-01-0.261D-01
 Coeff:     -0.102D+00 0.703D-01 0.104D+01
 Gap=     0.408 Goal=   None    Shift=    0.000
 RMSDP=3.15D-09 MaxDP=1.22D-07 DE=-2.18D-11 OVMax= 4.69D-07

 SCF Done:  E(RHF) =  -1115.75878773     A.U. after   16 cycles
            NFock= 16  Conv=0.32D-08     -V/T= 2.0015
 KE= 1.114078176652D+03 PE=-6.834282252541D+03 EE= 2.491650518163D+03
 Leave Link  502 at Thu Jan 30 14:41:38 2025, MaxMem=   104857600 cpu:              94.5 elap:              94.9
 (Enter /home/pb777/GAUSSIAN/g16/l801.exe)
 Range of M.O.s used for correlation:     1   417
 NBasis=   417 NAE=    90 NBE=    90 NFC=     0 NFV=     0
 NROrb=    417 NOA=    90 NOB=    90 NVA=   327 NVB=   327
 Leave Link  801 at Thu Jan 30 14:41:38 2025, MaxMem=   104857600 cpu:               0.0 elap:               0.0
 (Enter /home/pb777/GAUSSIAN/g16/l1101.exe)
 Using compressed storage, NAtomX=    46.
 Will process     47 centers per pass.
 Leave Link 1101 at Thu Jan 30 14:41:38 2025, MaxMem=   104857600 cpu:               0.3 elap:               0.4
 (Enter /home/pb777/GAUSSIAN/g16/l1102.exe)
 Symmetrizing basis deriv contribution to polar:
 IMax=3 JMax=2 DiffMx= 0.00D+00
 Leave Link 1102 at Thu Jan 30 14:41:38 2025, MaxMem=   104857600 cpu:               0.0 elap:               0.0
 (Enter /home/pb777/GAUSSIAN/g16/l1110.exe)
 Forming Gx(P) for the SCF density, NAtomX=    46.
 Integral derivatives from FoFJK, PRISM(SPDF).
 Do as many integral derivatives as possible in FoFJK.
 G2DrvN: MDV=     104854152.
 G2DrvN: will do    47 centers at a time, making    1 passes.
 Calling FoFCou, ICntrl=  3107 FMM=F I1Cent=   0 AccDes= 0.00D+00.
 FoFJK:  IHMeth= 1 ICntrl=    3107 DoSepK=F KAlg= 0 I1Cent=           0 FoldK=F
 IRaf=         0 NMat=       1 IRICut=       1 DoRegI=T DoRafI=F ISym2E= 0 IDoP0=0 IntGTp=1.
 FoFCou: FMM=F IPFlag=           0 FMFlag=      100000 FMFlg1=           0
         NFxFlg=           0 DoJE=F BraDBF=F KetDBF=F FulRan=T
         wScrn=  0.000000 ICntrl=      3107 IOpCl=  0 I1Cent=           0 NGrid=           0
         NMat0=    1 NMatS0=      1 NMatT0=    0 NMatD0=    1 NMtDS0=    0 NMtDT0=    0
 Symmetry not used in FoFCou.
 End of G2Drv F.D. properties file   721 does not exist.
 End of G2Drv F.D. properties file   722 does not exist.
 End of G2Drv F.D. properties file   788 does not exist.
 Leave Link 1110 at Thu Jan 30 14:43:06 2025, MaxMem=   104857600 cpu:              87.4 elap:              87.8
 (Enter /home/pb777/GAUSSIAN/g16/l1002.exe)
 Minotr:  Closed shell wavefunction.
          IDoAtm=1111111111111111111111111111111111111111111111
          Direct CPHF calculation.
          Differentiating once with respect to nuclear coordinates.
          Requested convergence is 1.0D-08 RMS, and 1.0D-07 maximum.
          Secondary convergence is 1.0D-12 RMS, and 1.0D-12 maximum.
          NewPWx=T KeepS1=F KeepF1=F KeepIn=T MapXYZ=F SortEE=F KeepMc=T.
 Two-electron integrals replicated using symmetry.
          MDV=     104857600 using IRadAn=       1.
          Solving linear equations simultaneously, MaxMat=     384.
 FoF2E skips out because all densities are zero.
 FoFJK:  IHMeth= 1 ICntrl=       0 DoSepK=F KAlg= 0 I1Cent=           0 FoldK=F
 IRaf= 640000000 NMat=     138 IRICut=     345 DoRegI=T DoRafI=T ISym2E= 2 IDoP0=0 IntGTp=1.
 FoFCou: FMM=F IPFlag=           0 FMFlag=      100000 FMFlg1=           0
         NFxFlg=           0 DoJE=F BraDBF=F KetDBF=F FulRan=T
         wScrn=  0.000000 ICntrl=         0 IOpCl=  0 I1Cent=           0 NGrid=           0
         NMat0=  138 NMatS0=    138 NMatT0=    0 NMatD0=  138 NMtDS0=    0 NMtDT0=    0
 Integrals replicated using symmetry in FoFCou.
 Raff kept on since  57.64% of shell-pairs survive, threshold=   0.20 IRatSp=58.
          There are   141 degrees of freedom in the 1st order CPHF.  IDoFFX=6 NUNeed=     0.
    135 vectors produced by pass  0 Test12= 2.94D-14 1.00D-09 XBig12= 1.02D-01 6.30D-02.
 AX will form   135 AO Fock derivatives at one time.
    135 vectors produced by pass  1 Test12= 2.94D-14 1.00D-09 XBig12= 1.25D-02 2.27D-02.
    135 vectors produced by pass  2 Test12= 2.94D-14 1.00D-09 XBig12= 3.43D-04 2.93D-03.
    135 vectors produced by pass  3 Test12= 2.94D-14 1.00D-09 XBig12= 5.46D-06 3.25D-04.
    135 vectors produced by pass  4 Test12= 2.94D-14 1.00D-09 XBig12= 6.56D-08 2.01D-05.
    135 vectors produced by pass  5 Test12= 2.94D-14 1.00D-09 XBig12= 4.39D-10 1.59D-06.
    123 vectors produced by pass  6 Test12= 2.94D-14 1.00D-09 XBig12= 2.99D-12 9.86D-08.
     46 vectors produced by pass  7 Test12= 2.94D-14 1.00D-09 XBig12= 1.60D-14 7.63D-09.
 InvSVY:  IOpt=1 It=  1 EMax= 3.33D-16
 Solved reduced A of dimension   979 with   141 vectors.
 End of Minotr F.D. properties file   721 does not exist.
 End of Minotr F.D. properties file   722 does not exist.
 End of Minotr F.D. properties file   788 does not exist.
 Leave Link 1002 at Thu Jan 30 15:05:03 2025, MaxMem=   104857600 cpu:            1310.3 elap:            1317.5
 (Enter /home/pb777/GAUSSIAN/g16/l601.exe)
 Copying SCF densities to generalized density rwf, IOpCl= 0 IROHF=0.

 **********************************************************************

            Population analysis using the SCF density.

 **********************************************************************

 Orbital symmetries:
       Occupied  (A) (A) (A) (A) (A) (A) (A) (A) (A) (A) (A) (A)
                 (A) (A) (A) (A) (A) (A) (A) (A) (A) (A) (A) (A)
                 (A) (A) (A) (A) (A) (A) (A) (A) (A) (A) (A) (A)
                 (A) (A) (A) (A) (A) (A) (A) (A) (A) (A) (A) (A)
                 (A) (A) (A) (A) (A) (A) (A) (A) (A) (A) (A) (A)
                 (A) (A) (A) (A) (A) (A) (A) (A) (A) (A) (A) (A)
                 (A) (A) (A) (A) (A) (A) (A) (A) (A) (A) (A) (A)
                 (A) (A) (A) (A) (A) (A)
       Virtual   (A) (A) (A) (A) (A) (A) (A) (A) (A) (A) (A) (A)
                 (A) (A) (A) (A) (A) (A) (A) (A) (A) (A) (A) (A)
                 (A) (A) (A) (A) (A) (A) (A) (A) (A) (A) (A) (A)
                 (A) (A) (A) (A) (A) (A) (A) (A) (A) (A) (A) (A)
                 (A) (A) (A) (A) (A) (A) (A) (A) (A) (A) (A) (A)
                 (A) (A) (A) (A) (A) (A) (A) (A) (A) (A) (A) (A)
                 (A) (A) (A) (A) (A) (A) (A) (A) (A) (A) (A) (A)
                 (A) (A) (A) (A) (A) (A) (A) (A) (A) (A) (A) (A)
                 (A) (A) (A) (A) (A) (A) (A) (A) (A) (A) (A) (A)
                 (A) (A) (A) (A) (A) (A) (A) (A) (A) (A) (A) (A)
                 (A) (A) (A) (A) (A) (A) (A) (A) (A) (A) (A) (A)
                 (A) (A) (A) (A) (A) (A) (A) (A) (A) (A) (A) (A)
                 (A) (A) (A) (A) (A) (A) (A) (A) (A) (A) (A) (A)
                 (A) (A) (A) (A) (A) (A) (A) (A) (A) (A) (A) (A)
                 (A) (A) (A) (A) (A) (A) (A) (A) (A) (A) (A) (A)
                 (A) (A) (A) (A) (A) (A) (A) (A) (A) (A) (A) (A)
                 (A) (A) (A) (A) (A) (A) (A) (A) (A) (A) (A) (A)
                 (A) (A) (A) (A) (A) (A) (A) (A) (A) (A) (A) (A)
                 (A) (A) (A) (A) (A) (A) (A) (A) (A) (A) (A) (A)
                 (A) (A) (A) (A) (A) (A) (A) (A) (A) (A) (A) (A)
                 (A) (A) (A) (A) (A) (A) (A) (A) (A) (A) (A) (A)
                 (A) (A) (A) (A) (A) (A) (A) (A) (A) (A) (A) (A)
                 (A) (A) (A) (A) (A) (A) (A) (A) (A) (A) (A) (A)
                 (A) (A) (A) (A) (A) (A) (A) (A) (A) (A) (A) (A)
                 (A) (A) (A) (A) (A) (A) (A) (A) (A) (A) (A) (A)
                 (A) (A) (A) (A) (A) (A) (A) (A) (A) (A) (A) (A)
                 (A) (A) (A) (A) (A) (A) (A) (A) (A) (A) (A) (A)
                 (A) (A) (A)
[...]
 1174 Fit       0.000070
 1175 Fit      -0.001166
 1176 Fit       0.000041
 1177 Fit       0.000402
 1178 Fit      -0.000008
 1179 Fit      -0.000579
 1180 Fit      -0.001401
 1181 Fit      -0.001164
 1182 Fit      -0.001579
 1183 Fit      -0.002159
 1184 Fit      -0.002133
 1185 Fit      -0.001050
 1186 Fit      -0.000881
 1187 Fit      -0.000048
 1188 Fit       0.000022
 1189 Fit       0.000441
 1190 Fit       0.001281
 1191 Fit       0.001040
 1192 Fit       0.000455
 1193 Fit      -0.000600
 1194 Fit       0.001013
 1195 Fit       0.001523
 1196 Fit       0.001125
 1197 Fit       0.000181
 1198 Fit       0.000992
 1199 Fit       0.000777
 1200 Fit      -0.000141
 1201 Fit      -0.000829
 1202 Fit       0.000576
 1203 Fit       0.000810
 1204 Fit       0.000118
 1205 Fit      -0.001080
 1206 Fit      -0.001893
 1207 Fit      -0.001203
 1208 Fit       0.000307
 1209 Fit       0.000992
 1210 Fit       0.000992
 1211 Fit       0.000813
 1212 Fit       0.000439
 1213 Fit       0.001205
 1214 Fit       0.001527
 1215 Fit       0.001799
 1216 Fit       0.002445
 1217 Fit       0.002534
 1218 Fit       0.000833
 1219 Fit       0.001727
 1220 Fit       0.002897
 1221 Fit       0.000615
 1222 Fit       0.002969
 1223 Fit       0.000968
 1224 Fit       0.001539
 1225 Fit       0.000762
 1226 Fit       0.000170
 1227 Fit       0.003789
 1228 Fit       0.002616
 1229 Fit       0.001898
 1230 Fit       0.001734
 1231 Fit       0.004328
 1232 Fit       0.003556
 1233 Fit       0.002769
 1234 Fit       0.018128
 1235 Fit       0.021814
 1236 Fit       0.013789
 1237 Fit       0.009304
 1238 Fit       0.020369
 1239 Fit       0.016046
 1240 Fit       0.014411
 1241 Fit       0.026030
 1242 Fit       0.026089
 1243 Fit       0.016841
 1244 Fit       0.014886
 1245 Fit       0.012341
 1246 Fit       0.005252
 1247 Fit       0.015224
 1248 Fit       0.011389
 1249 Fit      -0.021449
 1250 Fit      -0.022355
 1251 Fit      -0.021523
 1252 Fit      -0.024259
 1253 Fit      -0.013442
 1254 Fit      -0.012851
 1255 Fit      -0.024157
 1256 Fit      -0.023116
 1257 Fit      -0.017843
 1258 Fit      -0.000266
 1259 Fit      -0.021089
 1260 Fit      -0.024289
 1261 Fit      -0.020691
 1262 Fit      -0.012228
 1263 Fit      -0.002272
 1264 Fit      -0.022330
 1265 Fit      -0.020979
 1266 Fit      -0.013334
 1267 Fit       0.000169
 1268 Fit      -0.016850
 1269 Fit      -0.011126
 1270 Fit      -0.002411
 1271 Fit      -0.001205
 1272 Fit      -0.007996
 1273 Fit       0.003841
 1274 Fit       0.002087
 1275 Fit      -0.002722
 1276 Fit       0.005160
 1277 Fit       0.002380
 1278 Fit      -0.000971
 1279 Fit      -0.007064
 1280 Fit      -0.015648
 1281 Fit      -0.001851
 1282 Fit      -0.004151
 1283 Fit      -0.009907
 1284 Fit      -0.014301
 1285 Fit       0.003458
 1286 Fit       0.006824
 1287 Fit       0.013180
 1288 Fit       0.023931
 1289 Fit       0.030039
 1290 Fit       0.034246
 1291 Fit       0.038012
 1292 Fit       0.020536
 1293 Fit       0.029455
 1294 Fit       0.033548
 1295 Fit       0.034334
 1296 Fit       0.030671
 1297 Fit       0.015531
 1298 Fit       0.027487
 1299 Fit       0.030523
 1300 Fit       0.024517
 1301 Fit       0.022513
 1302 Fit       0.010416
 1303 Fit      -0.000467
 1304 Fit       0.015544
 1305 Fit       0.002446
 1306 Fit       0.018837
 1307 Fit       0.007386
 1308 Fit       0.000629
 1309 Fit       0.013661
 1310 Fit       0.008564
 1311 Fit       0.010142
 1312 Fit       0.014801
 1313 Fit       0.013719
 1314 Fit       0.015038
 1315 Fit       0.018982
 1316 Fit       0.013381
 1317 Fit       0.014610
 1318 Fit       0.015109
 1319 Fit       0.008682
 1320 Fit       0.010526
 1321 Fit       0.007831
 1322 Fit       0.008125
 1323 Fit       0.021224
 1324 Fit       0.022633
 1325 Fit       0.020629
 1326 Fit       0.007525
 1327 Fit       0.016470
 1328 Fit       0.028025
 1329 Fit       0.031030
 1330 Fit       0.013510
 1331 Fit       0.022627
 1332 Fit       0.029333
 1333 Fit       0.010761
 1334 Fit       0.021072
 1335 Fit       0.023902
 1336 Fit      -0.011278
 1337 Fit      -0.009048
 1338 Fit      -0.010139
 1339 Fit      -0.009054
 1340 Fit      -0.009949
 1341 Fit      -0.010718
 1342 Fit      -0.004964
 1343 Fit      -0.001489
 1344 Fit      -0.002232
 1345 Fit      -0.000677
 1346 Fit       0.004726
 1347 Fit       0.008671
 1348 Fit       0.015910
 1349 Fit      -0.007396
 1350 Fit      -0.001085
 1351 Fit       0.002619
 1352 Fit      -0.006539
 1353 Fit       0.025369
 1354 Fit       0.014718
 1355 Fit       0.004916
 1356 Fit      -0.002507
 1357 Fit      -0.003387
 1358 Fit      -0.005814
 1359 Fit      -0.006744
 1360 Fit      -0.012435
 1361 Fit      -0.002613
 1362 Fit      -0.004798
 1363 Fit      -0.003490
 1364 Fit      -0.002094
 1365 Fit      -0.007092
 1366 Fit      -0.007839
 1367 Fit      -0.000833
 1368 Fit      -0.001833
 1369 Fit      -0.002068
 1370 Fit      -0.002453
 1371 Fit      -0.001763
 1372 Fit      -0.001291
 1373 Fit      -0.001646
 1374 Fit      -0.001379
 1375 Fit      -0.000456
 1376 Fit       0.000879
 1377 Fit      -0.000126
 1378 Fit       0.000179
 1379 Fit      -0.012463
 1380 Fit      -0.016688
 1381 Fit      -0.003216
 1382 Fit      -0.008013
 1383 Fit       0.005735
 1384 Fit       0.000078
 1385 Fit      -0.017297
 1386 Fit      -0.009297
 1387 Fit      -0.002055
 1388 Fit       0.009746
 1389 Fit      -0.001669
 1390 Fit       0.004817
 1391 Fit      -0.015295
 1392 Fit      -0.008856
 1393 Fit      -0.012871
 1394 Fit      -0.015775
 1395 Fit      -0.013452
 1396 Fit      -0.007581
 1397 Fit      -0.004871
 1398 Fit      -0.010103
 1399 Fit      -0.011296
 1400 Fit       0.001214
 1401 Fit      -0.015359
 1402 Fit      -0.015659
 1403 Fit      -0.016609
 1404 Fit      -0.018771
 1405 Fit      -0.001659
 1406 Fit      -0.010061
 1407 Fit      -0.009993
 1408 Fit      -0.011985
 1409 Fit      -0.015838
 1410 Fit      -0.015052
 1411 Fit      -0.017658
 1412 Fit      -0.018174
 1413 Fit      -0.010675
 1414 Fit      -0.016974
 1415 Fit      -0.015156
 1416 Fit      -0.018651
 1417 Fit      -0.001351
 1418 Fit      -0.009897
 1419 Fit      -0.014696
 1420 Fit      -0.016437
 1421 Fit      -0.018286
 1422 Fit      -0.010538
 1423 Fit      -0.014239
 1424 Fit      -0.010616
 1425 Fit      -0.008851
 1426 Fit      -0.009930
 1427 Fit      -0.013513
 1428 Fit      -0.010732
 1429 Fit      -0.014541
 1430 Fit      -0.008026
 1431 Fit      -0.012298
 1432 Fit      -0.009190
 1433 Fit      -0.012359
 1434 Fit      -0.007781
 1435 Fit      -0.009138
 1436 Fit      -0.012988
 1437 Fit      -0.022020
 1438 Fit      -0.030278
 1439 Fit      -0.029341
 1440 Fit      -0.012004
 1441 Fit      -0.009433
 1442 Fit      -0.010237
 1443 Fit      -0.028740
 1444 Fit      -0.025271
 1445 Fit      -0.023277
 1446 Fit      -0.024977
 1447 Fit      -0.029855
 1448 Fit      -0.033165
 1449 Fit      -0.018126
 1450 Fit      -0.016855
 1451 Fit      -0.016395
 1452 Fit      -0.018980
 1453 Fit      -0.025168
 1454 Fit      -0.030965
 1455 Fit      -0.033871
 1456 Fit      -0.011185
 1457 Fit      -0.010928
 1458 Fit      -0.020204
 1459 Fit      -0.027631
 1460 Fit      -0.031122
 1461 Fit      -0.012953
 1462 Fit      -0.022631
 1463 Fit      -0.027365
 1464 Fit      -0.017051
 1465 Fit      -0.022703
 1466 Fit      -0.023939
 1467 Fit      -0.017736
 1468 Fit      -0.018735
 1469 Fit      -0.012830
 1470 Fit      -0.005212
 1471 Fit      -0.000588
 1472 Fit       0.001456
 1473 Fit       0.007477
 1474 Fit       0.004432
 1475 Fit       0.012903
 1476 Fit       0.019237
 1477 Fit       0.024349
 1478 Fit       0.010445
 1479 Fit       0.027236
 1480 Fit      -0.006138
 1481 Fit       0.018008
 1482 Fit       0.007532
 1483 Fit       0.000056
 1484 Fit       0.013186
 1485 Fit       0.003754
 1486 Fit       0.012016
 1487 Fit      -0.008660
 1488 Fit      -0.007297
 1489 Fit      -0.006349
 1490 Fit      -0.008220
 1491 Fit      -0.008997
 1492 Fit      -0.006604
 1493 Fit      -0.009620
 1494 Fit      -0.009681
 1495 Fit      -0.006004
 1496 Fit      -0.008711
 1497 Fit      -0.006473
 1498 Fit      -0.005205
 1499 Fit      -0.004821
 1500 Fit      -0.003233
 1501 Fit      -0.001273
 1502 Fit      -0.003450
 1503 Fit       0.004393
 1504 Fit      -0.006199
 1505 Fit      -0.009639
 1506 Fit      -0.010285
 1507 Fit      -0.004564
 1508 Fit      -0.003526
 1509 Fit      -0.006525
 1510 Fit      -0.009159
 1511 Fit      -0.004423
 1512 Fit      -0.006873
 1513 Fit      -0.013872
 1514 Fit      -0.008953
 1515 Fit      -0.009859
 1516 Fit      -0.002263
 1517 Fit      -0.003433
 1518 Fit      -0.014462
 1519 Fit      -0.009402
 1520 Fit      -0.010104
 1521 Fit      -0.002609
 1522 Fit      -0.004159
 1523 Fit      -0.018398
 1524 Fit      -0.015192
 1525 Fit      -0.013678
 1526 Fit      -0.015595
 1527 Fit      -0.014684
 1528 Fit      -0.016177
 1529 Fit      -0.008517
 1530 Fit      -0.006877
 1531 Fit      -0.001515
 1532 Fit       0.000605
 1533 Fit       0.004441
 1534 Fit      -0.017212
 1535 Fit       0.002951
 1536 Fit      -0.006383
 1537 Fit      -0.010257
 1538 Fit       0.009314
 1539 Fit       0.001159
 1540 Fit      -0.003094
 1541 Fit       0.004767
 1542 Fit       0.000271
 1543 Fit       0.009825
 1544 Fit       0.008777
 1545 Fit       0.004144
 1546 Fit      -0.006211
 1547 Fit       0.016848
 1548 Fit       0.016344
 1549 Fit       0.014629
 1550 Fit       0.011298
 1551 Fit       0.005525
 1552 Fit       0.025521
 1553 Fit       0.021601
 1554 Fit       0.018469
 1555 Fit       0.014741
 1556 Fit       0.009443
 1557 Fit       0.027580
 1558 Fit       0.021093
 1559 Fit       0.015697
 1560 Fit       0.009243
 1561 Fit       0.002045
 1562 Fit      -0.000155
 1563 Fit      -0.002624
 1564 Fit      -0.007243
 1565 Fit      -0.004862
 1566 Fit      -0.008555
 1567 Fit       0.000315
 1568 Fit       0.001493
 1569 Fit      -0.001059
 1570 Fit      -0.003072
 1571 Fit      -0.002790
 1572 Fit      -0.005541
 1573 Fit      -0.006768
 1574 Fit       0.001928
 1575 Fit      -0.000936
 1576 Fit      -0.001941
 1577 Fit      -0.000522
 1578 Fit      -0.003772
 1579 Fit      -0.006425
 1580 Fit      -0.006453
 1581 Fit      -0.004395
 1582 Fit      -0.010881
 1583 Fit      -0.015707
 1584 Fit      -0.015442
 1585 Fit      -0.001410
 1586 Fit      -0.004631
 1587 Fit      -0.002105
 1588 Fit      -0.000372
 1589 Fit       0.000906
 1590 Fit       0.002705
 1591 Fit      -0.008360
 1592 Fit      -0.005516
 1593 Fit      -0.002469
 1594 Fit      -0.000975
 1595 Fit      -0.003921
 1596 Fit      -0.020323
 1597 Fit      -0.014168
 1598 Fit      -0.021428
 1599 Fit      -0.012680
 1600 Fit      -0.027346
 1601 Fit      -0.014542
 1602 Fit      -0.009135
 1603 Fit      -0.024642
 1604 Fit      -0.013372
 1605 Fit      -0.008946
 1606 Fit      -0.019934
 1607 Fit      -0.012260
 1608 Fit      -0.002872
 1609 Fit      -0.001991
 1610 Fit      -0.004992
 1611 Fit      -0.002915
 1612 Fit      -0.001751
 1613 Fit      -0.001527
 1614 Fit      -0.004832
 1615 Fit      -0.002590
 1616 Fit      -0.001400
 1617 Fit      -0.001178
 1618 Fit      -0.001677
 1619 Fit      -0.007267
 1620 Fit      -0.004130
 1621 Fit      -0.002150
 1622 Fit      -0.001453
 1623 Fit      -0.001396
 1624 Fit      -0.003965
 1625 Fit      -0.002466
 1626 Fit      -0.000590
 1627 Fit      -0.000472
 1628 Fit      -0.001719
 1629 Fit      -0.001848
 1630 Fit      -0.001090
 1631 Fit      -0.001838
 1632 Fit      -0.003616
 1633 Fit      -0.003736
 1634 Fit      -0.003516
 1635 Fit      -0.003195
 1636 Fit      -0.007756
 1637 Fit      -0.006719
 1638 Fit      -0.005740
 1639 Fit      -0.010074
 1640 Fit      -0.002031
 1641 Fit      -0.001228
 1642 Fit      -0.000195
 1643 Fit      -0.001590
 1644 Fit      -0.000903
 1645 Fit      -0.000238
 1646 Fit       0.000416
 1647 Fit      -0.001221
 1648 Fit      -0.000659
 1649 Fit       0.000075
 1650 Fit       0.000742
 1651 Fit       0.001795
 1652 Fit       0.000231
 1653 Fit       0.001188
 1654 Fit      -0.000120
 1655 Fit      -0.000416
 1656 Fit       0.000011
 1657 Fit       0.000316
 1658 Fit      -0.000174
 1659 Fit      -0.001003
 1660 Fit      -0.000158
 1661 Fit       0.000166
 1662 Fit      -0.000047
 1663 Fit      -0.000419
 1664 Fit      -0.001563
 1665 Fit      -0.000805
 1666 Fit      -0.000693
 1667 Fit      -0.000961
 1668 Fit      -0.001237
 1669 Fit      -0.001802
 1670 Fit      -0.001984
 1671 Fit      -0.001141
 1672 Fit      -0.000968
 1673 Fit      -0.000492
 1674 Fit      -0.000406
 1675 Fit       0.000003
 1676 Fit       0.000511
 1677 Fit       0.000312
 1678 Fit       0.000099
 1679 Fit      -0.000134
 1680 Fit       0.000713
 1681 Fit       0.000909
 1682 Fit       0.000550
 1683 Fit      -0.000421
 1684 Fit       0.000558
 1685 Fit       0.000741
 1686 Fit       0.000399
 1687 Fit       0.000650
 1688 Fit      -0.000409
 1689 Fit      -0.000813
 1690 Fit       0.000038
 1691 Fit       0.000179
 1692 Fit      -0.000213
 1693 Fit      -0.000941
 1694 Fit      -0.001440
 1695 Fit      -0.001067
 1696 Fit      -0.000097
 1697 Fit       0.000310
 1698 Fit       0.000251
 1699 Fit       0.000140
 1700 Fit      -0.000068
 1701 Fit       0.000900
 1702 Fit       0.000489
 1703 Fit       0.000810
 1704 Fit       0.000909
 1705 Fit       0.001291
 1706 Fit       0.001302
 1707 Fit       0.000360
 1708 Fit       0.000751
 1709 Fit       0.001322
 1710 Fit       0.002136
 1711 Fit       0.000231
 1712 Fit       0.000911
 1713 Fit       0.001711
 1714 Fit       0.000329
 1715 Fit       0.003597
 1716 Fit       0.000167
 1717 Fit       0.001067
 1718 Fit       0.000449
 1719 Fit       0.000593
 1720 Fit       0.001854
 1721 Fit       0.001137
 1722 Fit       0.001144
 1723 Fit       0.002564
 1724 Fit       0.001650
 1725 Fit       0.018648
 1726 Fit       0.010365
 1727 Fit       0.018975
 1728 Fit       0.013741
 1729 Fit       0.010882
 1730 Fit       0.017132
 1731 Fit       0.014284
 1732 Fit       0.013352
 1733 Fit       0.018574
 1734 Fit       0.020216
 1735 Fit       0.014143
 1736 Fit       0.012859
 1737 Fit       0.012515
 1738 Fit       0.009929
 1739 Fit      -0.017511
 1740 Fit      -0.018343
 1741 Fit      -0.018295
 1742 Fit      -0.019306
 1743 Fit      -0.013083
 1744 Fit      -0.012706
 1745 Fit      -0.019489
 1746 Fit      -0.018695
 1747 Fit      -0.015646
 1748 Fit      -0.002057
 1749 Fit      -0.001375
 1750 Fit      -0.004820
 1751 Fit      -0.017397
 1752 Fit      -0.019583
 1753 Fit      -0.017188
 1754 Fit      -0.011989
 1755 Fit      -0.006176
 1756 Fit      -0.018446
 1757 Fit      -0.018779
 1758 Fit      -0.015776
 1759 Fit      -0.009539
 1760 Fit      -0.001203
 1761 Fit      -0.016761
 1762 Fit      -0.013197
 1763 Fit      -0.005475
 1764 Fit      -0.010521
 1765 Fit      -0.003938
 1766 Fit      -0.000357
 1767 Fit      -0.001721
 1768 Fit      -0.007107
 1769 Fit       0.002696
 1770 Fit       0.000875
 1771 Fit      -0.003123
 1772 Fit       0.001808
 1773 Fit      -0.001226
 1774 Fit      -0.006002
 1775 Fit      -0.011958
 1776 Fit       0.002092
 1777 Fit      -0.000570
 1778 Fit      -0.003563
 1779 Fit      -0.008914
 1780 Fit      -0.005939
 1781 Fit      -0.008671
 1782 Fit       0.016264
 1783 Fit       0.022305
 1784 Fit       0.027005
 1785 Fit       0.010416
 1786 Fit       0.020291
 1787 Fit       0.025614
 1788 Fit       0.028850
 1789 Fit       0.030813
 1790 Fit       0.017064
 1791 Fit       0.024521
 1792 Fit       0.027924
 1793 Fit       0.028348
 1794 Fit       0.025058
 1795 Fit       0.012821
 1796 Fit       0.022231
 1797 Fit       0.024837
 1798 Fit       0.020298
 1799 Fit       0.018247
 1800 Fit       0.004234
 1801 Fit       0.012220
 1802 Fit       0.005142
 1803 Fit       0.013650
 1804 Fit       0.004167
 1805 Fit       0.015165
 1806 Fit       0.006556
 1807 Fit       0.001220
 1808 Fit       0.010770
 1809 Fit       0.005367
 1810 Fit       0.008775
 1811 Fit       0.010283
 1812 Fit       0.010469
 1813 Fit       0.012889
 1814 Fit       0.014179
 1815 Fit       0.012523
 1816 Fit       0.013227
 1817 Fit       0.015447
 1818 Fit       0.011455
 1819 Fit       0.012356
 1820 Fit       0.012219
 1821 Fit       0.007274
 1822 Fit       0.009041
 1823 Fit       0.012918
 1824 Fit       0.013831
 1825 Fit       0.011410
 1826 Fit       0.009075
 1827 Fit       0.020293
 1828 Fit       0.021999
 1829 Fit       0.010310
 1830 Fit       0.016573
 1831 Fit       0.023994
 1832 Fit       0.027169
 1833 Fit       0.012333
 1834 Fit       0.019414
 1835 Fit       0.024131
 1836 Fit       0.009722
 1837 Fit       0.017487
 1838 Fit       0.019490
 -----------------------------------------------------------------
 Leave Link  602 at Thu Jan 30 17:21:53 2025, MaxMem=   104857600 cpu:               0.2 elap:               0.2
 (Enter /home/pb777/GAUSSIAN/g16/l9999.exe)

 Test job not archived.
 1\1\GINC-BUMBU\SP\RHF\6-31G(d)\C18H21N5O2\PB777\30-Jan-2025\0\\#P HF/6
 -31G* GEOM(AllCheck) Guess(Read) NoSymm Pop=mk IOp(6/33=2) GFInput GFP
 rint\\Gaussian Calculation\\0,1\C,0,1.4183253773,28.9850181878,6.66168
 65275\C,0,-2.2076555617,31.24766356,7.4803910132\C,0,0.0868316665,26.5
 558870095,9.5703704758\C,0,-0.6743878057,25.8366905176,10.6673879716\C
 ,0,-2.055870247,25.3709013229,10.2006798085\C,0,-2.7963407899,24.61556
 92206,11.3026675835\C,0,-1.9727954302,23.4390841308,11.8231222327\C,0,
 -0.5917608123,23.8963270908,12.2893363804\C,0,0.1479490635,24.65411986
 62,11.1876492982\C,0,5.6143147956,26.6612581576,5.4592373185\C,0,5.485
 515551,25.6320914588,6.3903047413\C,0,4.3715849125,25.6148276912,7.226
 9650157\C,0,3.398538088,26.6016330627,7.1439605524\N,0,0.9617753978,28
 .1802088134,7.6407461799\C,0,-0.1855021874,28.4845961499,8.2314272675\
 O,0,-0.664774777,27.7153103813,9.2005549022\C,0,-0.9061943963,29.62381
 41991,7.8405074778\N,0,-2.0947955636,30.1976673651,8.2423173253\N,0,-1
 .162181982,31.4041113151,6.5953165398\C,0,-0.3046279476,30.3603151305,
 6.811132768\N,0,0.8388880861,30.0987821729,6.1890654703\N,0,2.60096127
 07,28.67936086,6.0456936124\C,0,3.5203949354,27.6396639678,6.210380716
 8\C,0,4.6430239037,27.649466653,5.3734817053\H,0,-3.0284509284,31.9530
 020455,7.5095410217\H,0,0.2170882253,25.9136576009,8.6898231275\H,0,1.
 082547545,26.8661358853,9.9101028381\H,0,-0.813297247,26.5495450432,11
 .4949625061\H,0,-1.9284198392,24.7092126745,9.3292976704\H,0,-2.640900
 502,26.2322102726,9.8602591791\H,0,-3.7685082511,24.2677131512,10.9321
 520772\H,0,-3.0082883943,25.3049360746,12.133181871\H,0,-1.8548063342,
 22.6972983753,11.0192526959\H,0,-2.5012365686,22.9327118462,12.6404979
 184\H,0,0.0052427475,23.0373223733,12.619758414\H,0,-0.7047467555,24.5
 537382674,13.163809631\H,0,1.1223691967,25.0025857426,11.5554163882\H,
 0,0.3552410188,23.9666046119,10.3529222923\H,0,6.4758960472,26.6964252
 752,4.7945020913\O,0,6.4013189086,24.6326344249,6.5259250068\H,0,4.275
 6398159,24.8111932382,7.9509520949\H,0,2.5379383256,26.5792802122,7.79
 79812646\H,0,-1.0376676967,32.1375285021,5.9150232444\H,0,2.8298428051
 ,29.3570985074,5.3327321036\H,0,4.7607779167,28.4448934722,4.640072182
 \H,0,7.1112044176,24.774904119,5.8864514969\\Version=ES64L-G16RevA.03\
 HF=-1115.8575747\RMSD=8.402e-09\Dipole=0.328347,0.8803593,-0.9687052\Q
 uadrupole=-21.9662857,73.761256,-51.7949702,15.1839252,-1.3511706,-46.
 6680502\PG=C01 [X(C18H21N5O2)]\\@


      THE ONE-EYED VIEW OF OUR UNIVERSE SAYS YOU MUST NOT LOOK
      FAR AFIELD FOR PROBLEMS.  SUCH PROBLEMS MAY NEVER ARRIVE. 
      INSTEAD, TEND TO THE WOLF WITHIN YOUR FENCES.
      THE PACKS RANGING OUTSIDE MAY NOT EVEN EXIST.

                              -- THE AZHAR BOOK SHAMRA I:4
                                 CHILDREN OF DUNE, BY FRANK HERBERT
 Job cpu time:       0 days  0 hours  1 minutes 48.9 seconds.
 Elapsed time:       0 days  0 hours  1 minutes 49.2 seconds.
 File lengths (MBytes):  RWF=     94 Int=      0 D2E=      0 Chk=     17 Scr=      1
 Normal termination of Gaussian 16 at Thu Jan 30 17:21:53 2025.
