 Entering Gaussian System, Link 0=/home/pb777/GAUSSIAN/g16/g16
 Initial command:
 /home/pb777/GAUSSIAN/g16/l1.exe "/home/pb777/GAUSSIAN/g16/scratch/Gau-1062724.inp" -scrdir="/home/pb777/GAUSSIAN/g16/scratch/"
 Entering Link 1 = /home/pb777/GAUSSIAN/g16/l1.exe PID=   1062725.
  
 Copyright (c) 1988,1990,1992,1993,1995,1998,2003,2009,2016,
            Gaussian, Inc.  All Rights Reserved.
  
 This is part of the Gaussian(R) 16 program.  It is based on
 the Gaussian(R) 09 system (copyright 2009, Gaussian, Inc.),
 the Gaussian(R) 03 system (copyright 2003, Gaussian, Inc.),
 the Gaussian(R) 98 system (copyright 1998, Gaussian, Inc.),
 the Gaussian(R) 94 system (copyright 1995, Gaussian, Inc.),
 the Gaussian 92(TM) system (copyright 1992, Gaussian, Inc.),
 the Gaussian 90(TM) system (copyright 1990, Gaussian, Inc.),
 the Gaussian 88(TM) system (copyright 1988, Gaussian, Inc.),
 the Gaussian 86(TM) system (copyright 1986, Carnegie Mellon
 University), and the Gaussian 82(TM) system (copyright 1983,
 Carnegie Mellon University). Gaussian is a federally registered
 trademark of Gaussian, Inc.
  
 This software contains proprietary and confidential information,
 including trade secrets, belonging to Gaussian, Inc.
  
 This software is provided under written license and may be
 used, copied, transmitted, or stored only in accord with that
 written license.
  
 The following legend is applicable only to US Government
 contracts under FAR:
  
                    RESTRICTED RIGHTS LEGEND
  
 Use, reproduction and disclosure by the US Government is
 subject to restrictions as set forth in subparagraphs (a)
 and (c) of the Commercial Computer Software - Restricted
 Rights clause in FAR 52.227-19.
  
 Gaussian, Inc.
 340 Quinnipiac St., Bldg. 40, Wallingford CT 06492
  
  
 ---------------------------------------------------------------
 Warning -- This program may not be used in any manner that
 competes with the business of Gaussian, Inc. or will provide
 assistance to any competitor of Gaussian, Inc.  The licensee
 of this program is prohibited from giving any competitor of
 Gaussian, Inc. access to this program.  By using this program,
 the user acknowledges that Gaussian, Inc. is engaged in the
 business of creating and licensing software in the field of
 computational chemistry and represents and warrants to the
 licensee that it is not a competitor of Gaussian, Inc. and that
 it will not use this program in any manner prohibited above.
 ---------------------------------------------------------------
  

 Cite this work as:
 Gaussian 16, Revision A.03,
 M. J. Frisch, G. W. Trucks, H. B. Schlegel, G. E. Scuseria, 
 M. A. Robb, J. R. Cheeseman, G. Scalmani, V. Barone, 
 G. A. Petersson, H. Nakatsuji, X. Li, M. Caricato, A. V. Marenich, 
 J. Bloino, B. G. Janesko, R. Gomperts, B. Mennucci, H. P. Hratchian, 
 J. V. Ortiz, A. F. Izmaylov, J. L. Sonnenberg, D. Williams-Young, 
 F. Ding, F. Lipparini, F. Egidi, J. Goings, B. Peng, A. Petrone, 
 T. Henderson, D. Ranasinghe, V. G. Zakrzewski, J. Gao, N. Rega, 
 G. Zheng, W. Liang, M. Hada, M. Ehara, K. Toyota, R. Fukuda, 
 J. Hasegawa, M. Ishida, T. Nakajima, Y. Honda, O. Kitao, H. Nakai, 
 T. Vreven, K. Throssell, J. A. Montgomery, Jr., J. E. Peralta, 
 F. Ogliaro, M. J. Bearpark, J. J. Heyd, E. N. Brothers, K. N. Kudin, 
 V. N. Staroverov, T. A. Keith, R. Kobayashi, J. Normand, 
 K. Raghavachari, A. P. Rendell, J. C. Burant, S. S. Iyengar, 
 J. Tomasi, M. Cossi, J. M. Millam, M. Klene, C. Adamo, R. Cammi, 
 J. W. Ochterski, R. L. Martin, K. Morokuma, O. Farkas, 
 J. B. Foresman, and D. J. Fox, Gaussian, Inc., Wallingford CT, 2016.
 
 ******************************************
 Gaussian 16:  ES64L-G16RevA.03 25-Dec-2016
                30-Jan-2025 
 ******************************************
 %NPROC=1', f'%MEM=512MB
 Will use up to    1 processors via shared memory.
 %chk=binder_31.antechamber.chk
 ------------------------
 #P HF/6-31G* OPT(CalcFC)
 ------------------------
 1/10=4,18=20,19=15,38=1/1,3;
 2/9=110,12=2,17=6,18=5,40=1/2;
 3/5=1,6=6,7=1,11=9,25=1,30=1,71=2,140=1/1,2,3;
 4//1;
 5/5=2,38=5/2;
 8/6=4,10=90,11=11/1;
 11/6=1,8=1,9=11,15=111,16=1/1,2,10;
 10/6=1,13=1/2;
 6/7=2,8=2,9=2,10=2,28=1/1;
 7/10=1,18=20,25=1/1,2,3,16;
 1/10=4,18=20,19=15/3(2);
 2/9=110/2;
 99//99;
 2/9=110/2;
 3/5=1,6=6,7=1,11=9,25=1,30=1,71=1/1,2,3;
 4/5=5,16=3,69=1/1;
 5/5=2,38=5/2;
 7//1,2,3,16;
 1/18=20,19=15/3(-5);
 2/9=110/2;
 6/7=2,8=2,9=2,10=2,19=2,28=1/1;
 99/9=1/99;
 Leave Link    1 at Thu Jan 30 14:39:57 2025, MaxMem=           0 cpu:               0.0 elap:               0.0
 (Enter /home/pb777/GAUSSIAN/g16/l101.exe)
 --------------------
 Gaussian Calculation
 --------------------
 Symbolic Z-matrix:
 Charge =  0 Multiplicity = 1
 C                     1.422     29.034    6.768 
 C                    -1.45      32.163    8.008 
 C                    -0.582     26.625    8.978 
 C                    -1.25      25.767    10.081 
 C                    -1.355     24.331    9.527 
 C                    -1.653     23.273    10.603 
 C                    -0.781     23.343    11.865 
 C                    -0.712     24.779    12.432 
 C                    -0.388     25.86     11.38 
 C                     4.732     25.864    5.413 
 C                     4.789     25.232    6.652 
 C                     4.12      25.764    7.755 
 C                     3.365     26.925    7.599 
 N                     0.488     28.18     7.498 
 C                    -0.568     28.637    8.086 
 O                    -1.389     27.808    8.752 
 C                    -0.837     30.059    7.987 
 N                    -1.806     31.022    8.425 
 N                    -0.337     32.096    7.318 
 C                     0.012     30.844    7.311 
 N                     1.172     30.278    6.709 
 N                     2.523     28.721    6.157 
 C                     3.284     27.56     6.353 
 C                     3.995     27.035    5.277 
 H                    -1.973     33.085    8.159 
 H                    -0.541     26.054    8.043 
 H                     0.454     26.776    9.311 
 H                    -2.258     26.125    10.296 
 H                    -0.409     24.042    9.063 
 H                    -2.106     24.282    8.736 
 H                    -1.609     22.271    10.176 
 H                    -2.684     23.422    10.916 
 H                     0.23      23.014    11.618 
 H                    -1.152     22.652    12.623 
 H                    -0.027     24.811    13.272 
 H                    -1.687     25.018    12.862 
 H                    -0.474     26.853    11.824 
 H                     0.671     25.729    11.148 
 H                     5.273     25.469    4.565 
 H                     4.185     25.278    8.72 
 H                     2.839     27.33     8.45 
 H                     0.089     32.896    6.844 
 H                     2.943     29.46     5.61 
 H                     3.983     27.533    4.327 
 S                     5.784     23.717    6.807 
 O                     6.527     23.828    8.138 
 H                     4.715     21.557    7.214 
 H                     3.822     22.858    8.006 
 C                     4.354     22.578    7.097 
 H                     3.661     22.607    6.258 
 
 ITRead=  0  0  0  0  0  0  0  0  0  0  0  0  0  0  0  0  0  0  0  0
 ITRead=  0  0  0  0  0  0  0  0  0  0  0  0  0  0  0  0  0  0  0  0
 ITRead=  0  0  0  0  0  0  0  0  0  0
 MicOpt= -1 -1 -1 -1 -1 -1 -1 -1 -1 -1 -1 -1 -1 -1 -1 -1 -1 -1 -1 -1
 MicOpt= -1 -1 -1 -1 -1 -1 -1 -1 -1 -1 -1 -1 -1 -1 -1 -1 -1 -1 -1 -1
 MicOpt= -1 -1 -1 -1 -1 -1 -1 -1 -1 -1
 NAtoms=     50 NQM=       50 NQMF=       0 NMMI=      0 NMMIF=      0
                NMic=       0 NMicF=      0.
                    Isotopes and Nuclear Properties:
 (Nuclear quadrupole moments (NQMom) in fm**2, nuclear magnetic moments (NMagM)
  in nuclear magnetons)

  Atom         1           2           3           4           5           6           7           8           9          10
 IAtWgt=          12          12          12          12          12          12          12          12          12          12
 AtmWgt=  12.0000000  12.0000000  12.0000000  12.0000000  12.0000000  12.0000000  12.0000000  12.0000000  12.0000000  12.0000000
 NucSpn=           0           0           0           0           0           0           0           0           0           0
 AtZEff=  -0.0000000  -0.0000000  -0.0000000  -0.0000000  -0.0000000  -0.0000000  -0.0000000  -0.0000000  -0.0000000  -0.0000000
 NQMom=    0.0000000   0.0000000   0.0000000   0.0000000   0.0000000   0.0000000   0.0000000   0.0000000   0.0000000   0.0000000
 NMagM=    0.0000000   0.0000000   0.0000000   0.0000000   0.0000000   0.0000000   0.0000000   0.0000000   0.0000000   0.0000000
 AtZNuc=   6.0000000   6.0000000   6.0000000   6.0000000   6.0000000   6.0000000   6.0000000   6.0000000   6.0000000   6.0000000

  Atom        11          12          13          14          15          16          17          18          19          20
 IAtWgt=          12          12          12          14          12          16          12          14          14          12
 AtmWgt=  12.0000000  12.0000000  12.0000000  14.0030740  12.0000000  15.9949146  12.0000000  14.0030740  14.0030740  12.0000000
 NucSpn=           0           0           0           2           0           0           0           2           2           0
 AtZEff=  -0.0000000  -0.0000000  -0.0000000  -0.0000000  -0.0000000  -0.0000000  -0.0000000  -0.0000000  -0.0000000  -0.0000000
 NQMom=    0.0000000   0.0000000   0.0000000   2.0440000   0.0000000   0.0000000   0.0000000   2.0440000   2.0440000   0.0000000
 NMagM=    0.0000000   0.0000000   0.0000000   0.4037610   0.0000000   0.0000000   0.0000000   0.4037610   0.4037610   0.0000000
 AtZNuc=   6.0000000   6.0000000   6.0000000   7.0000000   6.0000000   8.0000000   6.0000000   7.0000000   7.0000000   6.0000000

  Atom        21          22          23          24          25          26          27          28          29          30
 IAtWgt=          14          14          12          12           1           1           1           1           1           1
 AtmWgt=  14.0030740  14.0030740  12.0000000  12.0000000   1.0078250   1.0078250   1.0078250   1.0078250   1.0078250   1.0078250
 NucSpn=           2           2           0           0           1           1           1           1           1           1
 AtZEff=  -0.0000000  -0.0000000  -0.0000000  -0.0000000  -0.0000000  -0.0000000  -0.0000000  -0.0000000  -0.0000000  -0.0000000
 NQMom=    2.0440000   2.0440000   0.0000000   0.0000000   0.0000000   0.0000000   0.0000000   0.0000000   0.0000000   0.0000000
 NMagM=    0.4037610   0.4037610   0.0000000   0.0000000   2.7928460   2.7928460   2.7928460   2.7928460   2.7928460   2.7928460
 AtZNuc=   7.0000000   7.0000000   6.0000000   6.0000000   1.0000000   1.0000000   1.0000000   1.0000000   1.0000000   1.0000000

  Atom        31          32          33          34          35          36          37          38          39          40
 IAtWgt=           1           1           1           1           1           1           1           1           1           1
 AtmWgt=   1.0078250   1.0078250   1.0078250   1.0078250   1.0078250   1.0078250   1.0078250   1.0078250   1.0078250   1.0078250
 NucSpn=           1           1           1           1           1           1           1           1           1           1
 AtZEff=  -0.0000000  -0.0000000  -0.0000000  -0.0000000  -0.0000000  -0.0000000  -0.0000000  -0.0000000  -0.0000000  -0.0000000
 NQMom=    0.0000000   0.0000000   0.0000000   0.0000000   0.0000000   0.0000000   0.0000000   0.0000000   0.0000000   0.0000000
 NMagM=    2.7928460   2.7928460   2.7928460   2.7928460   2.7928460   2.7928460   2.7928460   2.7928460   2.7928460   2.7928460
 AtZNuc=   1.0000000   1.0000000   1.0000000   1.0000000   1.0000000   1.0000000   1.0000000   1.0000000   1.0000000   1.0000000

  Atom        41          42          43          44          45          46          47          48          49          50
 IAtWgt=           1           1           1           1          32          16           1           1          12           1
 AtmWgt=   1.0078250   1.0078250   1.0078250   1.0078250  31.9720718  15.9949146   1.0078250   1.0078250  12.0000000   1.0078250
 NucSpn=           1           1           1           1           0           0           1           1           0           1
 AtZEff=  -0.0000000  -0.0000000  -0.0000000  -0.0000000  -0.0000000  -0.0000000  -0.0000000  -0.0000000  -0.0000000  -0.0000000
 NQMom=    0.0000000   0.0000000   0.0000000   0.0000000   0.0000000   0.0000000   0.0000000   0.0000000   0.0000000   0.0000000
 NMagM=    2.7928460   2.7928460   2.7928460   2.7928460   0.0000000   0.0000000   2.7928460   2.7928460   0.0000000   2.7928460
 AtZNuc=   1.0000000   1.0000000   1.0000000   1.0000000  16.0000000   8.0000000   1.0000000   1.0000000   6.0000000   1.0000000
 Leave Link  101 at Thu Jan 30 14:39:57 2025, MaxMem=   104857600 cpu:               0.1 elap:               0.1
 (Enter /home/pb777/GAUSSIAN/g16/l103.exe)

 GradGradGradGradGradGradGradGradGradGradGradGradGradGradGradGradGradGrad
 Berny optimization.
 Initialization pass.
                           ----------------------------
                           !    Initial Parameters    !
                           ! (Angstroms and Degrees)  !
 --------------------------                            --------------------------
 ! Name  Definition              Value          Derivative Info.                !
 --------------------------------------------------------------------------------
 ! R1    R(1,14)                 1.461          calculate D2E/DX2 analytically  !
 ! R2    R(1,21)                 1.2702         calculate D2E/DX2 analytically  !
 ! R3    R(1,22)                 1.2975         calculate D2E/DX2 analytically  !
 ! R4    R(2,18)                 1.2659         calculate D2E/DX2 analytically  !
 ! R5    R(2,19)                 1.3112         calculate D2E/DX2 analytically  !
 ! R6    R(2,25)                 1.0707         calculate D2E/DX2 analytically  !
 ! R7    R(3,4)                  1.5489         calculate D2E/DX2 analytically  !
 ! R8    R(3,16)                 1.4498         calculate D2E/DX2 analytically  !
 ! R9    R(3,26)                 1.0963         calculate D2E/DX2 analytically  !
 ! R10   R(3,27)                 1.0986         calculate D2E/DX2 analytically  !
 ! R11   R(4,5)                  1.5427         calculate D2E/DX2 analytically  !
 ! R12   R(4,9)                  1.5618         calculate D2E/DX2 analytically  !
 ! R13   R(4,28)                 1.0911         calculate D2E/DX2 analytically  !
 ! R14   R(5,6)                  1.5382         calculate D2E/DX2 analytically  !
 ! R15   R(5,29)                 1.0926         calculate D2E/DX2 analytically  !
 ! R16   R(5,30)                 1.0918         calculate D2E/DX2 analytically  !
 ! R17   R(6,7)                  1.5356         calculate D2E/DX2 analytically  !
 ! R18   R(6,31)                 1.0901         calculate D2E/DX2 analytically  !
 ! R19   R(6,32)                 1.0877         calculate D2E/DX2 analytically  !
 ! R20   R(7,8)                  1.5454         calculate D2E/DX2 analytically  !
 ! R21   R(7,33)                 1.0915         calculate D2E/DX2 analytically  !
 ! R22   R(7,34)                 1.0907         calculate D2E/DX2 analytically  !
 ! R23   R(8,9)                  1.5428         calculate D2E/DX2 analytically  !
 ! R24   R(8,35)                 1.0844         calculate D2E/DX2 analytically  !
 ! R25   R(8,36)                 1.0921         calculate D2E/DX2 analytically  !
 ! R26   R(9,37)                 1.0911         calculate D2E/DX2 analytically  !
 ! R27   R(9,38)                 1.092          calculate D2E/DX2 analytically  !
 ! R28   R(10,11)                1.392          calculate D2E/DX2 analytically  !
 ! R29   R(10,24)                1.3903         calculate D2E/DX2 analytically  !
 ! R30   R(10,39)                1.0807         calculate D2E/DX2 analytically  !
 ! R31   R(11,12)                1.3954         calculate D2E/DX2 analytically  !
 ! R32   R(11,45)                1.8191         calculate D2E/DX2 analytically  !
 ! R33   R(12,13)                1.3937         calculate D2E/DX2 analytically  !
 ! R34   R(12,40)                1.0824         calculate D2E/DX2 analytically  !
 ! R35   R(13,23)                1.4008         calculate D2E/DX2 analytically  !
 ! R36   R(13,41)                1.0793         calculate D2E/DX2 analytically  !
 ! R37   R(14,15)                1.2922         calculate D2E/DX2 analytically  !
 ! R38   R(15,16)                1.3434         calculate D2E/DX2 analytically  !
 ! R39   R(15,17)                1.4506         calculate D2E/DX2 analytically  !
 ! R40   R(17,18)                1.4346         calculate D2E/DX2 analytically  !
 ! R41   R(17,20)                1.3394         calculate D2E/DX2 analytically  !
 ! R42   R(19,20)                1.2998         calculate D2E/DX2 analytically  !
 ! R43   R(19,42)                1.0228         calculate D2E/DX2 analytically  !
 ! R44   R(20,21)                1.4242         calculate D2E/DX2 analytically  !
 ! R45   R(22,23)                1.4019         calculate D2E/DX2 analytically  !
 ! R46   R(22,43)                1.0108         calculate D2E/DX2 analytically  !
 ! R47   R(23,24)                1.3925         calculate D2E/DX2 analytically  !
 ! R48   R(24,44)                1.0727         calculate D2E/DX2 analytically  !
 ! R49   R(45,46)                1.5284         calculate D2E/DX2 analytically  !
 ! R50   R(45,49)                1.851          calculate D2E/DX2 analytically  !
 ! R51   R(47,49)                1.0892         calculate D2E/DX2 analytically  !
 ! R52   R(48,49)                1.0898         calculate D2E/DX2 analytically  !
 ! R53   R(49,50)                1.0886         calculate D2E/DX2 analytically  !
 ! A1    A(14,1,21)            118.0237         calculate D2E/DX2 analytically  !
 ! A2    A(14,1,22)            129.5499         calculate D2E/DX2 analytically  !
 ! A3    A(21,1,22)            112.4195         calculate D2E/DX2 analytically  !
 ! A4    A(18,2,19)            111.4686         calculate D2E/DX2 analytically  !
 ! A5    A(18,2,25)            126.3224         calculate D2E/DX2 analytically  !
 ! A6    A(19,2,25)            122.1965         calculate D2E/DX2 analytically  !
 ! A7    A(4,3,16)             108.8423         calculate D2E/DX2 analytically  !
 ! A8    A(4,3,26)             109.5696         calculate D2E/DX2 analytically  !
 ! A9    A(4,3,27)             105.4848         calculate D2E/DX2 analytically  !
 ! A10   A(16,3,26)            108.2318         calculate D2E/DX2 analytically  !
 ! A11   A(16,3,27)            117.3875         calculate D2E/DX2 analytically  !
 ! A12   A(26,3,27)            107.1467         calculate D2E/DX2 analytically  !
 ! A13   A(3,4,5)              106.8132         calculate D2E/DX2 analytically  !
 ! A14   A(3,4,9)              108.7409         calculate D2E/DX2 analytically  !
 ! A15   A(3,4,28)             110.9167         calculate D2E/DX2 analytically  !
 ! A16   A(5,4,9)              113.059          calculate D2E/DX2 analytically  !
 ! A17   A(5,4,28)             108.2581         calculate D2E/DX2 analytically  !
 ! A18   A(9,4,28)             109.0551         calculate D2E/DX2 analytically  !
 ! A19   A(4,5,6)              113.7174         calculate D2E/DX2 analytically  !
 ! A20   A(4,5,29)             109.8638         calculate D2E/DX2 analytically  !
 ! A21   A(4,5,30)             110.4108         calculate D2E/DX2 analytically  !
 ! A22   A(6,5,29)             106.4326         calculate D2E/DX2 analytically  !
 ! A23   A(6,5,30)             110.0394         calculate D2E/DX2 analytically  !
 ! A24   A(29,5,30)            106.0225         calculate D2E/DX2 analytically  !
 ! A25   A(5,6,7)              115.6925         calculate D2E/DX2 analytically  !
 ! A26   A(5,6,31)             110.5129         calculate D2E/DX2 analytically  !
 ! A27   A(5,6,32)             106.9005         calculate D2E/DX2 analytically  !
 ! A28   A(7,6,31)             109.9325         calculate D2E/DX2 analytically  !
 ! A29   A(7,6,32)             107.1888         calculate D2E/DX2 analytically  !
 ! A30   A(31,6,32)            106.0749         calculate D2E/DX2 analytically  !
 ! A31   A(6,7,8)              111.6688         calculate D2E/DX2 analytically  !
 ! A32   A(6,7,33)             109.0426         calculate D2E/DX2 analytically  !
 ! A33   A(6,7,34)             110.4329         calculate D2E/DX2 analytically  !
 ! A34   A(8,7,33)             108.7686         calculate D2E/DX2 analytically  !
 ! A35   A(8,7,34)             110.4189         calculate D2E/DX2 analytically  !
 ! A36   A(33,7,34)            106.3414         calculate D2E/DX2 analytically  !
 ! A37   A(7,8,9)              114.2214         calculate D2E/DX2 analytically  !
 ! A38   A(7,8,35)             109.8668         calculate D2E/DX2 analytically  !
 ! A39   A(7,8,36)             107.9358         calculate D2E/DX2 analytically  !
 ! A40   A(9,8,35)             112.0164         calculate D2E/DX2 analytically  !
 ! A41   A(9,8,36)             107.616          calculate D2E/DX2 analytically  !
 ! A42   A(35,8,36)            104.6261         calculate D2E/DX2 analytically  !
 ! A43   A(4,9,8)              114.1745         calculate D2E/DX2 analytically  !
 ! A44   A(4,9,37)             110.4349         calculate D2E/DX2 analytically  !
 ! A45   A(4,9,38)             110.5735         calculate D2E/DX2 analytically  !
 ! A46   A(8,9,37)             110.0986         calculate D2E/DX2 analytically  !
 ! A47   A(8,9,38)             105.3356         calculate D2E/DX2 analytically  !
 ! A48   A(37,9,38)            105.7868         calculate D2E/DX2 analytically  !
 ! A49   A(11,10,24)           119.4175         calculate D2E/DX2 analytically  !
 ! A50   A(11,10,39)           120.7964         calculate D2E/DX2 analytically  !
 ! A51   A(24,10,39)           119.7679         calculate D2E/DX2 analytically  !
 ! A52   A(10,11,12)           120.7184         calculate D2E/DX2 analytically  !
 ! A53   A(10,11,45)           118.4464         calculate D2E/DX2 analytically  !
 ! A54   A(12,11,45)           120.8228         calculate D2E/DX2 analytically  !
 ! A55   A(11,12,13)           119.2648         calculate D2E/DX2 analytically  !
 ! A56   A(11,12,40)           120.3132         calculate D2E/DX2 analytically  !
 ! A57   A(13,12,40)           120.4217         calculate D2E/DX2 analytically  !
 ! A58   A(12,13,23)           120.5653         calculate D2E/DX2 analytically  !
 ! A59   A(12,13,41)           119.2327         calculate D2E/DX2 analytically  !
 ! A60   A(23,13,41)           120.2018         calculate D2E/DX2 analytically  !
 ! A61   A(1,14,15)            122.8931         calculate D2E/DX2 analytically  !
 ! A62   A(14,15,16)           120.4487         calculate D2E/DX2 analytically  !
 ! A63   A(14,15,17)           117.8516         calculate D2E/DX2 analytically  !
 ! A64   A(16,15,17)           121.696          calculate D2E/DX2 analytically  !
 ! A65   A(3,16,15)            103.9239         calculate D2E/DX2 analytically  !
 ! A66   A(15,17,18)           139.6791         calculate D2E/DX2 analytically  !
 ! A67   A(15,17,20)           119.4344         calculate D2E/DX2 analytically  !
 ! A68   A(18,17,20)           100.8835         calculate D2E/DX2 analytically  !
 ! A69   A(2,18,17)            108.3309         calculate D2E/DX2 analytically  !
 ! A70   A(2,19,20)            106.2584         calculate D2E/DX2 analytically  !
 ! A71   A(2,19,42)            123.878          calculate D2E/DX2 analytically  !
 ! A72   A(20,19,42)           129.7239         calculate D2E/DX2 analytically  !
 ! A73   A(17,20,19)           113.056          calculate D2E/DX2 analytically  !
 ! A74   A(17,20,21)           119.7814         calculate D2E/DX2 analytically  !
 ! A75   A(19,20,21)           127.1419         calculate D2E/DX2 analytically  !
 ! A76   A(1,21,20)            121.9969         calculate D2E/DX2 analytically  !
 ! A77   A(1,22,23)            126.4806         calculate D2E/DX2 analytically  !
 ! A78   A(1,22,43)            115.5343         calculate D2E/DX2 analytically  !
 ! A79   A(23,22,43)           117.1009         calculate D2E/DX2 analytically  !
 ! A80   A(13,23,22)           122.0824         calculate D2E/DX2 analytically  !
 ! A81   A(13,23,24)           119.1368         calculate D2E/DX2 analytically  !
 ! A82   A(22,23,24)           118.7748         calculate D2E/DX2 analytically  !
 ! A83   A(10,24,23)           120.8405         calculate D2E/DX2 analytically  !
 ! A84   A(10,24,44)           118.9204         calculate D2E/DX2 analytically  !
 ! A85   A(23,24,44)           120.239          calculate D2E/DX2 analytically  !
 ! A86   A(11,45,46)           106.2373         calculate D2E/DX2 analytically  !
 ! A87   A(11,45,49)            95.9266         calculate D2E/DX2 analytically  !
 ! A88   A(46,45,49)           106.4879         calculate D2E/DX2 analytically  !
 ! A89   A(45,49,47)           109.729          calculate D2E/DX2 analytically  !
 ! A90   A(45,49,48)           110.4691         calculate D2E/DX2 analytically  !
 ! A91   A(45,49,50)           110.7729         calculate D2E/DX2 analytically  !
 ! A92   A(47,49,48)           108.2413         calculate D2E/DX2 analytically  !
 ! A93   A(47,49,50)           108.587          calculate D2E/DX2 analytically  !
 ! A94   A(48,49,50)           108.9803         calculate D2E/DX2 analytically  !
 ! D1    D(21,1,14,15)          -0.3723         calculate D2E/DX2 analytically  !
 ! D2    D(22,1,14,15)         178.5919         calculate D2E/DX2 analytically  !
 ! D3    D(14,1,21,20)          -0.941          calculate D2E/DX2 analytically  !
 ! D4    D(22,1,21,20)         179.9229         calculate D2E/DX2 analytically  !
 ! D5    D(14,1,22,23)         -19.204          calculate D2E/DX2 analytically  !
 ! D6    D(14,1,22,43)         171.9418         calculate D2E/DX2 analytically  !
 ! D7    D(21,1,22,23)         159.807          calculate D2E/DX2 analytically  !
 ! D8    D(21,1,22,43)          -9.0472         calculate D2E/DX2 analytically  !
 ! D9    D(19,2,18,17)           0.3509         calculate D2E/DX2 analytically  !
 ! D10   D(25,2,18,17)         179.0796         calculate D2E/DX2 analytically  !
 ! D11   D(18,2,19,20)          -0.0571         calculate D2E/DX2 analytically  !
 ! D12   D(18,2,19,42)         176.014          calculate D2E/DX2 analytically  !
 ! D13   D(25,2,19,20)        -178.8468         calculate D2E/DX2 analytically  !
 ! D14   D(25,2,19,42)          -2.7756         calculate D2E/DX2 analytically  !
 ! D15   D(16,3,4,5)           129.1727         calculate D2E/DX2 analytically  !
 ! D16   D(16,3,4,9)          -108.5107         calculate D2E/DX2 analytically  !
 ! D17   D(16,3,4,28)           11.4065         calculate D2E/DX2 analytically  !
 ! D18   D(26,3,4,5)            10.9985         calculate D2E/DX2 analytically  !
 ! D19   D(26,3,4,9)           133.3151         calculate D2E/DX2 analytically  !
 ! D20   D(26,3,4,28)         -106.7678         calculate D2E/DX2 analytically  !
 ! D21   D(27,3,4,5)          -104.036          calculate D2E/DX2 analytically  !
 ! D22   D(27,3,4,9)            18.2806         calculate D2E/DX2 analytically  !
 ! D23   D(27,3,4,28)          138.1978         calculate D2E/DX2 analytically  !
 ! D24   D(4,3,16,15)          163.4859         calculate D2E/DX2 analytically  !
 ! D25   D(26,3,16,15)         -77.4995         calculate D2E/DX2 analytically  !
 ! D26   D(27,3,16,15)          43.8488         calculate D2E/DX2 analytically  !
 ! D27   D(3,4,5,6)            164.9645         calculate D2E/DX2 analytically  !
 ! D28   D(3,4,5,29)            45.8044         calculate D2E/DX2 analytically  !
 ! D29   D(3,4,5,30)           -70.7837         calculate D2E/DX2 analytically  !
 ! D30   D(9,4,5,6)             45.3994         calculate D2E/DX2 analytically  !
 ! D31   D(9,4,5,29)           -73.7607         calculate D2E/DX2 analytically  !
 ! D32   D(9,4,5,30)           169.6512         calculate D2E/DX2 analytically  !
 ! D33   D(28,4,5,6)           -75.5363         calculate D2E/DX2 analytically  !
 ! D34   D(28,4,5,29)          165.3036         calculate D2E/DX2 analytically  !
 ! D35   D(28,4,5,30)           48.7155         calculate D2E/DX2 analytically  !
 ! D36   D(3,4,9,8)           -164.5526         calculate D2E/DX2 analytically  !
 ! D37   D(3,4,9,37)            70.7518         calculate D2E/DX2 analytically  !
 ! D38   D(3,4,9,38)           -45.9892         calculate D2E/DX2 analytically  !
 ! D39   D(5,4,9,8)            -46.1023         calculate D2E/DX2 analytically  !
 ! D40   D(5,4,9,37)          -170.7978         calculate D2E/DX2 analytically  !
 ! D41   D(5,4,9,38)            72.4611         calculate D2E/DX2 analytically  !
 ! D42   D(28,4,9,8)            74.3803         calculate D2E/DX2 analytically  !
 ! D43   D(28,4,9,37)          -50.3152         calculate D2E/DX2 analytically  !
 ! D44   D(28,4,9,38)         -167.0562         calculate D2E/DX2 analytically  !
 ! D45   D(4,5,6,7)            -48.1359         calculate D2E/DX2 analytically  !
 ! D46   D(4,5,6,31)          -173.8634         calculate D2E/DX2 analytically  !
 ! D47   D(4,5,6,32)            71.1339         calculate D2E/DX2 analytically  !
 ! D48   D(29,5,6,7)            72.9625         calculate D2E/DX2 analytically  !
 ! D49   D(29,5,6,31)          -52.765          calculate D2E/DX2 analytically  !
 ! D50   D(29,5,6,32)         -167.7677         calculate D2E/DX2 analytically  !
 ! D51   D(30,5,6,7)          -172.588          calculate D2E/DX2 analytically  !
 ! D52   D(30,5,6,31)           61.6846         calculate D2E/DX2 analytically  !
 ! D53   D(30,5,6,32)          -53.3181         calculate D2E/DX2 analytically  !
 ! D54   D(5,6,7,8)             48.8375         calculate D2E/DX2 analytically  !
 ! D55   D(5,6,7,33)           -71.3873         calculate D2E/DX2 analytically  !
 ! D56   D(5,6,7,34)           172.1111         calculate D2E/DX2 analytically  !
 ! D57   D(31,6,7,8)           174.8605         calculate D2E/DX2 analytically  !
 ! D58   D(31,6,7,33)           54.6357         calculate D2E/DX2 analytically  !
 ! D59   D(31,6,7,34)          -61.8659         calculate D2E/DX2 analytically  !
 ! D60   D(32,6,7,8)           -70.2741         calculate D2E/DX2 analytically  !
 ! D61   D(32,6,7,33)          169.5011         calculate D2E/DX2 analytically  !
 ! D62   D(32,6,7,34)           52.9995         calculate D2E/DX2 analytically  !
 ! D63   D(6,7,8,9)            -48.5808         calculate D2E/DX2 analytically  !
 ! D64   D(6,7,8,35)          -175.4239         calculate D2E/DX2 analytically  !
 ! D65   D(6,7,8,36)            71.0503         calculate D2E/DX2 analytically  !
 ! D66   D(33,7,8,9)            71.8045         calculate D2E/DX2 analytically  !
 ! D67   D(33,7,8,35)          -55.0386         calculate D2E/DX2 analytically  !
 ! D68   D(33,7,8,36)         -168.5644         calculate D2E/DX2 analytically  !
 ! D69   D(34,7,8,9)          -171.8623         calculate D2E/DX2 analytically  !
 ! D70   D(34,7,8,35)           61.2946         calculate D2E/DX2 analytically  !
 ! D71   D(34,7,8,36)          -52.2312         calculate D2E/DX2 analytically  !
 ! D72   D(7,8,9,4)             48.3294         calculate D2E/DX2 analytically  !
 ! D73   D(7,8,9,37)           173.2037         calculate D2E/DX2 analytically  !
 ! D74   D(7,8,9,38)           -73.1715         calculate D2E/DX2 analytically  !
 ! D75   D(35,8,9,4)           174.0518         calculate D2E/DX2 analytically  !
 ! D76   D(35,8,9,37)          -61.0739         calculate D2E/DX2 analytically  !
 ! D77   D(35,8,9,38)           52.5509         calculate D2E/DX2 analytically  !
 ! D78   D(36,8,9,4)           -71.4813         calculate D2E/DX2 analytically  !
 ! D79   D(36,8,9,37)           53.393          calculate D2E/DX2 analytically  !
 ! D80   D(36,8,9,38)          167.0179         calculate D2E/DX2 analytically  !
 ! D81   D(24,10,11,12)         -0.2458         calculate D2E/DX2 analytically  !
 ! D82   D(24,10,11,45)       -178.9742         calculate D2E/DX2 analytically  !
 ! D83   D(39,10,11,12)        178.2013         calculate D2E/DX2 analytically  !
 ! D84   D(39,10,11,45)         -0.527          calculate D2E/DX2 analytically  !
 ! D85   D(11,10,24,23)         -1.8698         calculate D2E/DX2 analytically  !
 ! D86   D(11,10,24,44)        177.9935         calculate D2E/DX2 analytically  !
 ! D87   D(39,10,24,23)        179.6669         calculate D2E/DX2 analytically  !
 ! D88   D(39,10,24,44)         -0.4699         calculate D2E/DX2 analytically  !
 ! D89   D(10,11,12,13)          1.4071         calculate D2E/DX2 analytically  !
 ! D90   D(10,11,12,40)       -178.7696         calculate D2E/DX2 analytically  !
 ! D91   D(45,11,12,13)       -179.8949         calculate D2E/DX2 analytically  !
 ! D92   D(45,11,12,40)         -0.0717         calculate D2E/DX2 analytically  !
 ! D93   D(10,11,45,46)        138.1523         calculate D2E/DX2 analytically  !
 ! D94   D(10,11,45,49)       -112.7351         calculate D2E/DX2 analytically  !
 ! D95   D(12,11,45,46)        -40.5746         calculate D2E/DX2 analytically  !
 ! D96   D(12,11,45,49)         68.5379         calculate D2E/DX2 analytically  !
 ! D97   D(11,12,13,23)         -0.4849         calculate D2E/DX2 analytically  !
 ! D98   D(11,12,13,41)        179.3353         calculate D2E/DX2 analytically  !
 ! D99   D(40,12,13,23)        179.6921         calculate D2E/DX2 analytically  !
 ! D100  D(40,12,13,41)         -0.4878         calculate D2E/DX2 analytically  !
 ! D101  D(12,13,23,22)        179.3257         calculate D2E/DX2 analytically  !
 ! D102  D(12,13,23,24)         -1.5747         calculate D2E/DX2 analytically  !
 ! D103  D(41,13,23,22)         -0.4928         calculate D2E/DX2 analytically  !
 ! D104  D(41,13,23,24)        178.6069         calculate D2E/DX2 analytically  !
 ! D105  D(1,14,15,16)        -179.5335         calculate D2E/DX2 analytically  !
 ! D106  D(1,14,15,17)           1.1588         calculate D2E/DX2 analytically  !
 ! D107  D(14,15,16,3)          18.2854         calculate D2E/DX2 analytically  !
 ! D108  D(17,15,16,3)        -162.4339         calculate D2E/DX2 analytically  !
 ! D109  D(14,15,17,18)       -179.8954         calculate D2E/DX2 analytically  !
 ! D110  D(14,15,17,20)         -0.6675         calculate D2E/DX2 analytically  !
 ! D111  D(16,15,17,18)          0.806          calculate D2E/DX2 analytically  !
 ! D112  D(16,15,17,20)       -179.9661         calculate D2E/DX2 analytically  !
 ! D113  D(15,17,18,2)         178.8317         calculate D2E/DX2 analytically  !
 ! D114  D(20,17,18,2)          -0.4835         calculate D2E/DX2 analytically  !
 ! D115  D(15,17,20,19)       -179.0241         calculate D2E/DX2 analytically  !
 ! D116  D(15,17,20,21)         -0.5623         calculate D2E/DX2 analytically  !
 ! D117  D(18,17,20,19)          0.4672         calculate D2E/DX2 analytically  !
 ! D118  D(18,17,20,21)        178.9289         calculate D2E/DX2 analytically  !
 ! D119  D(2,19,20,17)          -0.2906         calculate D2E/DX2 analytically  !
 ! D120  D(2,19,20,21)        -178.6158         calculate D2E/DX2 analytically  !
 ! D121  D(42,19,20,17)       -176.0491         calculate D2E/DX2 analytically  !
 ! D122  D(42,19,20,21)          5.6257         calculate D2E/DX2 analytically  !
 ! D123  D(17,20,21,1)           1.4077         calculate D2E/DX2 analytically  !
 ! D124  D(19,20,21,1)         179.6321         calculate D2E/DX2 analytically  !
 ! D125  D(1,22,23,13)         -32.2398         calculate D2E/DX2 analytically  !
 ! D126  D(1,22,23,24)         148.6574         calculate D2E/DX2 analytically  !
 ! D127  D(43,22,23,13)        136.4607         calculate D2E/DX2 analytically  !
 ! D128  D(43,22,23,24)        -42.6421         calculate D2E/DX2 analytically  !
 ! D129  D(13,23,24,10)          2.7666         calculate D2E/DX2 analytically  !
 ! D130  D(13,23,24,44)       -177.0948         calculate D2E/DX2 analytically  !
 ! D131  D(22,23,24,10)       -178.1037         calculate D2E/DX2 analytically  !
 ! D132  D(22,23,24,44)          2.0349         calculate D2E/DX2 analytically  !
 ! D133  D(11,45,49,47)        179.3331         calculate D2E/DX2 analytically  !
 ! D134  D(11,45,49,48)        -61.4042         calculate D2E/DX2 analytically  !
 ! D135  D(11,45,49,50)         59.4522         calculate D2E/DX2 analytically  !
 ! D136  D(46,45,49,47)        -71.768          calculate D2E/DX2 analytically  !
 ! D137  D(46,45,49,48)         47.4947         calculate D2E/DX2 analytically  !
 ! D138  D(46,45,49,50)        168.3512         calculate D2E/DX2 analytically  !
 --------------------------------------------------------------------------------
 Trust Radius=3.00D-01 FncErr=1.00D-07 GrdErr=1.00D-07 EigMax=2.50D+02 EigMin=1.00D-04
 Number of steps in this run=    295 maximum allowed number of steps=    300.
 GradGradGradGradGradGradGradGradGradGradGradGradGradGradGradGradGradGrad

 Leave Link  103 at Thu Jan 30 14:39:58 2025, MaxMem=   104857600 cpu:               0.0 elap:               0.0
 (Enter /home/pb777/GAUSSIAN/g16/l202.exe)
                          Input orientation:                          
 ---------------------------------------------------------------------
 Center     Atomic      Atomic             Coordinates (Angstroms)
 Number     Number       Type             X           Y           Z
 ---------------------------------------------------------------------
      1          6           0        1.422000   29.034000    6.768000
      2          6           0       -1.450000   32.163000    8.008000
      3          6           0       -0.582000   26.625000    8.978000
      4          6           0       -1.250000   25.767000   10.081000
      5          6           0       -1.355000   24.331000    9.527000
      6          6           0       -1.653000   23.273000   10.603000
      7          6           0       -0.781000   23.343000   11.865000
      8          6           0       -0.712000   24.779000   12.432000
      9          6           0       -0.388000   25.860000   11.380000
     10          6           0        4.732000   25.864000    5.413000
     11          6           0        4.789000   25.232000    6.652000
     12          6           0        4.120000   25.764000    7.755000
     13          6           0        3.365000   26.925000    7.599000
     14          7           0        0.488000   28.180000    7.498000
     15          6           0       -0.568000   28.637000    8.086000
     16          8           0       -1.389000   27.808000    8.752000
     17          6           0       -0.837000   30.059000    7.987000
     18          7           0       -1.806000   31.022000    8.425000
     19          7           0       -0.337000   32.096000    7.318000
     20          6           0        0.012000   30.844000    7.311000
     21          7           0        1.172000   30.278000    6.709000
     22          7           0        2.523000   28.721000    6.157000
     23          6           0        3.284000   27.560000    6.353000
     24          6           0        3.995000   27.035000    5.277000
     25          1           0       -1.973000   33.085000    8.159000
     26          1           0       -0.541000   26.054000    8.043000
     27          1           0        0.454000   26.776000    9.311000
     28          1           0       -2.258000   26.125000   10.296000
     29          1           0       -0.409000   24.042000    9.063000
     30          1           0       -2.106000   24.282000    8.736000
     31          1           0       -1.609000   22.271000   10.176000
     32          1           0       -2.684000   23.422000   10.916000
     33          1           0        0.230000   23.014000   11.618000
     34          1           0       -1.152000   22.652000   12.623000
     35          1           0       -0.027000   24.811000   13.272000
     36          1           0       -1.687000   25.018000   12.862000
     37          1           0       -0.474000   26.853000   11.824000
     38          1           0        0.671000   25.729000   11.148000
     39          1           0        5.273000   25.469000    4.565000
     40          1           0        4.185000   25.278000    8.720000
     41          1           0        2.839000   27.330000    8.450000
     42          1           0        0.089000   32.896000    6.844000
     43          1           0        2.943000   29.460000    5.610000
     44          1           0        3.983000   27.533000    4.327000
     45         16           0        5.784000   23.717000    6.807000
     46          8           0        6.527000   23.828000    8.138000
     47          1           0        4.715000   21.557000    7.214000
     48          1           0        3.822000   22.858000    8.006000
     49          6           0        4.354000   22.578000    7.097000
     50          1           0        3.661000   22.607000    6.258000
 ---------------------------------------------------------------------
                    Distance matrix (angstroms):
                    1          2          3          4          5
     1  C    0.000000
     2  C    4.424548   0.000000
     3  C    3.834501   5.688916   0.000000
     4  C    5.365523   6.726525   1.548870   0.000000
     5  C    6.118988   7.978509   2.482210   1.542737   0.000000
     6  C    7.573108   9.263225   3.876025   2.579715   1.538163
     7  C    7.951107   9.649684   4.375602   3.046045   2.602281
     8  C    7.398640   8.639437   3.918511   2.606298   3.008850
     9  C    5.883954   7.226758   2.528332   1.561760   2.589699
    10  C    4.779228   9.199378   6.444140   7.588409   7.505109
    11  C    5.079897   9.423514   6.016508   6.965184   6.842964
    12  C    4.352732   8.487409   4.934152   5.852109   5.930354
    13  C    2.985581   7.126581   4.191712   5.366518   5.720526
    14  N    1.461017   4.458725   2.398609   3.938921   4.725282
    15  C    2.419676   3.635476   2.200910   3.561186   4.608415
    16  O    3.652541   4.418516   1.449763   2.439517   3.562486
    17  C    2.763995   2.191581   3.583220   4.793398   5.953983
    18  N    4.137364   1.265901   4.597564   5.537734   6.796123
    19  N    3.573853   1.311243   5.722540   6.965916   8.137028
    20  C    2.357764   2.088783   4.575116   5.919584   7.014165
    21  N    1.270243   3.480734   4.644275   6.130709   7.049373
    22  N    1.297494   5.572997   4.689593   6.193498   6.757802
    23  C    2.410798   6.807157   4.765586   6.137588   6.482364
    24  C    3.583212   7.962586   5.900375   7.224698   7.348239
    25  H    5.465483   1.070707   6.658622   7.600654   8.881771
    26  H    3.789379   6.176357   1.096333   2.176808   2.415281
    27  H    3.535879   5.860273   1.098629   2.124758   3.049125
    28  H    5.869537   6.507323   2.190000   1.091079   2.150629
    29  H    5.791343   8.255141   2.590182   2.172379   1.092581
    30  H    6.237092   7.941693   2.805493   2.178758   1.091826
    31  H    8.157181  10.128039   4.631117   3.515668   2.174699
    32  H    8.096893   9.294316   4.293420   2.872735   2.126463
    33  H    7.822005   9.977911   4.546236   3.483070   2.935812
    34  H    9.035288  10.575734   5.421776   4.021765   3.527813
    35  H    7.888938   9.153498   4.694364   3.548541   4.002375
    36  H    7.932904   8.641094   4.346140   2.913062   3.421172
    37  H    5.823634   6.611394   2.857160   2.195364   3.523188
    38  H    5.538179   7.466900   2.661151   2.197766   2.947324
    39  H    5.691453  10.092701   7.422394   8.547783   8.357444
    40  H    5.054900   8.925435   4.960369   5.624115   5.677998
    41  H    2.782199   6.476787   3.532570   4.671515   5.267216
    42  H    4.086283   2.064148   6.658051   7.943156   9.090811
    43  H    1.958541   5.688151   5.639705   7.156070   7.753859
    44  H    3.843202   8.031448   6.579931   7.975686   8.110922
    45  S    6.877431  11.185172   7.327732   8.024882   7.664249
    46  O    7.418919  11.537836   7.685486   8.247224   8.019243
    47  H    8.182194  12.293287   7.540194   7.843788   7.063281
    48  H    6.740595  10.694719   5.876248   6.204280   5.593255
    49  C    7.098225  11.242267   6.654357   7.104843   6.447526
    50  H    6.824921  10.977338   6.445601   6.979889   6.230473
                    6          7          8          9         10
     6  C    0.000000
     7  C    1.535555   0.000000
     8  C    2.549266   1.545427   0.000000
     9  C    2.982704   2.593253   1.542803   0.000000
    10  C    8.626564   8.853074   8.948783   7.862538   0.000000
    11  C    7.806885   7.859300   7.992159   7.039155   1.392047
    12  C    6.902443   6.839089   6.796527   5.785491   2.422707
    13  C    6.895030   6.943976   6.677210   5.432789   2.788011
    14  N    6.188987   6.639098   6.111559   4.606485   5.265227
    15  C    6.023704   6.507891   5.813142   4.312142   6.551676
    16  O    4.905316   5.476920   4.814101   3.420978   7.238418
    17  C    7.318409   7.755429   6.903046   5.417163   7.432177
    18  N    8.050720   8.476513   7.498529   6.114654   8.855651
    19  N    9.506230   9.873568   8.934882   7.442455   8.256004
    20  C    8.421967   8.810946   7.970762   6.446473   7.119073
    21  N    8.497875   8.859615   8.157278   6.615933   5.816925
    22  N    8.178423   8.510027   8.085803   6.628648   3.687230
    23  C    7.798387   8.042976   7.788210   6.453241   2.420066
    24  C    8.626635   8.935479   8.856603   7.605125   1.390290
    25  H   10.116861  10.491037   9.425406   8.067694  10.229388
    26  H    3.940064   4.691994   4.573640   3.346134   5.895552
    27  H    4.287158   4.453496   3.884354   2.414287   5.858962
    28  H    2.931583   3.518922   2.960461   2.177655   8.530645
    29  H    2.123793   2.911733   3.461956   2.945175   6.562931
    30  H    2.170018   3.525335   3.981289   3.525953   7.765520
    31  H    1.090078   2.165061   3.490589   3.977610   8.706555
    32  H    1.087718   2.127969   2.833459   3.380940   9.552143
    33  H    2.154761   1.091499   2.159904   2.922034   8.178785
    34  H    2.171875   1.090727   2.180415   3.524203   9.844923
    35  H    3.483229   2.168684   1.084366   2.193259   9.247744
    36  H    2.854691   2.149528   1.092083   2.143056   9.869492
    37  H    3.961980   3.523639   2.174347   1.091137   8.317540
    38  H    3.424900   2.883642   2.112781   1.092001   7.028526
    39  H    9.447187   9.719094   9.908886   8.868147   1.080653
    40  H    6.453523   6.188409   6.165108   5.322279   3.402772
    41  H    6.424385   6.376739   5.913842   4.599927   3.867295
    42  H   10.476964  10.827149   9.887013   8.384994   8.547177
    43  H    9.183258   9.508464   9.044914   7.572877   4.021262
    44  H    9.449882   9.852575   9.763123   8.464596   2.127430
    45  S    8.361562   8.295931   8.658319   7.974858   2.767589
    46  O    8.561346   8.217823   8.470299   7.902962   3.846160
    47  H    7.414944   7.418060   8.189086   7.868416   4.668419
    48  H    6.073900   6.026169   6.620942   6.174138   4.072810
    49  C    6.989929   7.048920   7.679257   7.183466   3.711676
    50  H    6.896461   7.191071   7.871403   7.294607   3.531163
                   11         12         13         14         15
    11  C    0.000000
    12  C    1.395419   0.000000
    13  C    2.406415   1.393658   0.000000
    14  N    5.282520   4.369729   3.140439   0.000000
    15  C    6.507521   5.508270   4.317013   1.292180   0.000000
    16  O    7.015231   5.959952   4.970877   2.287800   1.343443
    17  C    7.532200   6.562979   5.256358   2.350614   1.450602
    18  N    8.953304   7.950657   6.648829   3.768120   2.708466
    19  N    8.592667   7.755646   6.365768   4.006006   3.550756
    20  C    7.399227   6.548221   5.165667   2.712645   2.409953
    21  N    6.208708   5.491905   4.104139   2.343498   2.759821
    22  N    4.189618   3.721272   2.452334   2.496435   3.644500
    23  C    2.788191   2.426956   1.400822   3.084322   4.359028
    24  C    2.402472   2.787750   2.408461   4.306149   5.592661
    25  H   10.472120   9.533358   8.170278   5.527429   4.665196
    26  H    5.569512   4.678885   4.026489   2.423993   2.583499
    27  H    5.314738   4.109116   3.380394   2.293325   2.451210
    28  H    7.983508   6.875019   6.287443   4.426324   3.748379
    29  H    5.852198   5.018764   4.969714   4.514076   4.700408
    30  H    7.265437   6.474702   6.181429   4.843128   4.664115
    31  H    7.881656   7.133283   7.282947   6.818018   6.780689
    32  H    8.792242   7.859472   7.737176   6.662047   6.299411
    33  H    7.096842   6.133300   6.424680   6.612754   6.688046
    34  H    8.809354   7.821506   7.993897   7.714532   7.532971
    35  H    8.197286   6.967288   6.939567   6.704809   6.467268
    36  H    8.974880   7.769119   7.540459   6.595556   6.095859
    37  H    7.554892   6.232778   5.709092   4.626084   4.142962
    38  H    6.117103   4.838313   4.613399   4.400385   4.400844
    39  H    2.155457   3.404781   3.868534   6.232835   7.520036
    40  H    2.154891   1.082426   2.154449   4.856202   5.854558
    41  H    3.381850   2.139239   1.079306   2.675071   3.667205
    42  H    8.992428   8.242834   6.852375   4.777821   4.484785
    43  H    4.729637   4.432468   3.249682   3.351115   4.374360
    44  H    3.368956   3.859963   3.384904   4.763284   6.005039
    45  S    1.819141   2.803178   4.095130   6.960134   8.135733
    46  O    2.683292   3.112625   4.458719   7.471213   8.571360
    47  H    3.718460   4.283171   5.548527   7.862081   8.876760
    48  H    2.899014   2.932003   4.112783   6.300580   7.257778
    49  C    2.725980   3.261643   4.486261   6.818296   7.868652
    50  H    2.884137   3.523966   4.531117   6.531758   7.588605
                   16         17         18         19         20
    16  O    0.000000
    17  C    2.440682   0.000000
    18  N    3.257394   1.434634   0.000000
    19  N    4.642198   2.201574   2.129997   0.000000
    20  C    3.640958   1.339404   2.139580   1.299752   0.000000
    21  N    4.102861   2.391093   3.516628   2.439895   1.424205
    22  N    4.782399   4.053239   5.401728   4.573636   3.484819
    23  C    5.258672   5.088968   6.495131   5.883720   4.733752
    24  C    6.454503   6.311648   7.710880   6.967469   5.874515
    25  H    5.342231   3.236782   2.086771   2.088516   3.111496
    26  H    2.073234   4.016314   5.140737   6.088761   4.877062
    27  H    2.184984   3.767990   4.890921   5.735863   4.554557
    28  H    2.443683   4.777769   5.261706   6.943455   6.027610
    29  H    3.903829   6.127418   7.146961   8.241185   7.036615
    30  H    3.598197   5.961970   6.753838   8.136257   7.041051
    31  H    5.721411   8.126540   8.926635  10.311003   9.183256
    32  H    5.059340   7.486002   8.045866   9.679478   8.680468
    33  H    5.815286   7.997167   8.858251  10.064503   8.939053
    34  H    6.451755   8.743876   9.386577  10.862614   9.832655
    35  H    5.591731   7.491918   8.076805   9.413684   8.481281
    36  H    4.976445   7.063979   7.466535   9.091563   8.224505
    37  H    3.344613   5.013260   5.541479   6.914612   6.044125
    38  H    3.782414   5.569101   6.447178   7.498243   6.428069
    39  H    8.208784   8.373188   9.790181   9.108690   8.006826
    40  H    6.121389   6.972498   8.304977   8.300555   7.097856
    41  H    4.265639   4.601607   5.933592   5.838078   4.651607
    42  H    5.631402   3.195699   3.098784   1.022816   2.105878
    43  H    5.600669   4.505256   5.737340   4.541383   3.660549
    44  H    6.965245   6.558100   7.904381   6.959127   5.969574
    45  S    8.483586   9.243971  10.657816  10.389196   9.184995
    46  O    8.881467   9.647624  11.012488  10.777139   9.610068
    47  H    8.871260  10.183626  11.557516  11.687773  10.410379
    48  H    7.225894   8.576773   9.924759  10.154372   8.875546
    49  C    7.941912   9.148986  10.536144  10.613512   9.339460
    50  H    7.666351   8.874331  10.266265  10.351267   9.070401
                   21         22         23         24         25
    21  N    0.000000
    22  N    2.134046   0.000000
    23  C    3.460463   1.401948   0.000000
    24  C    4.531777   2.404949   1.392452   0.000000
    25  H    4.457889   6.577729   7.837302   8.973597   0.000000
    26  H    4.749326   4.478614   4.444633   5.402630   7.176283
    27  H    4.421531   4.243996   4.168131   5.373911   6.857180
    28  H    6.471389   6.835825   6.951276   8.069602   7.286261
    29  H    6.850443   6.239752   5.775697   6.533534   9.221668
    30  H    7.127835   6.912568   6.743595   7.534314   8.822892
    31  H    9.157844   8.650334   8.156611   8.837461  11.006515
    32  H    8.920332   8.822717   8.576773   9.458389  10.073735
    33  H    8.817672   8.224975   7.596924   8.399521  10.873957
    34  H    9.926341   9.599351   9.114793   9.983287  11.377558
    35  H    8.625466   8.509631   8.148146   9.221859   9.919111
    36  H    8.584922   8.740328   8.575528   9.689460   9.342189
    37  H    6.372061   6.677299   6.674897   7.928953   7.383566
    38  H    6.375666   6.106722   5.759545   6.871918   8.368727
    39  H    6.673936   4.546699   3.394900   2.143031  11.109672
    40  H    6.174325   4.602767   3.409108   3.870064   9.959163
    41  H    3.807975   2.700479   2.156000   3.389881   7.507333
    42  H    2.836378   4.881286   6.238750   7.215514   2.452915
    43  H    2.239055   1.010807   2.068412   2.664248   6.618541
    44  H    4.594635   2.625232   2.143363   1.072683   8.999048
    45  S    8.020403   6.008048   4.607034   4.068236  12.237581
    46  O    8.504150   6.625543   5.256529   4.988105  12.567517
    47  H    9.426755   7.566043   6.230978   5.854815  13.361031
    48  H    7.985055   6.283388   5.013049   4.992464  11.755720
    49  C    8.340604   6.478627   5.149637   4.827642  12.310801
    50  H    8.077299   6.219826   4.968235   4.547648  12.047582
                   26         27         28         29         30
    26  H    0.000000
    27  H    1.766107   0.000000
    28  H    2.833574   2.957866   0.000000
    29  H    2.259639   2.877678   3.045978   0.000000
    30  H    2.463627   3.619981   2.419370   1.744803   0.000000
    31  H    4.472293   5.029833   3.910104   2.411475   2.522842
    32  H    4.446797   4.865428   2.805724   2.998939   2.413728
    33  H    4.755698   4.418718   4.197160   2.827212   3.920541
    34  H    5.737885   5.527744   4.324337   3.893295   4.321549
    35  H    5.399230   4.447708   3.944684   4.295692   5.017706
    36  H    5.060570   4.503781   2.852340   4.125320   4.212022
    37  H    3.865081   2.679978   2.459151   3.940694   4.336958
    38  H    3.348969   2.125527   3.075998   2.891296   3.952630
    39  H    6.800096   6.888797   9.486341   7.386031   8.558963
    40  H    4.836898   4.063699   6.686810   4.769715   6.369376
    41  H    3.635688   2.595470   5.553301   4.662212   5.815937
    42  H    6.974773   6.608609   7.954317   9.141405   9.088382
    43  H    5.445969   5.205418   7.754432   7.246643   7.878830
    44  H    6.038433   6.153629   8.749943   7.342101   8.190495
    45  S    6.855282   6.635993   9.090949   6.599122   8.142012
    46  O    7.410852   6.851858   9.333242   7.000680   8.665588
    47  H    6.966763   7.056309   8.887524   5.987437   7.501210
    48  H    5.408471   5.328900   7.272124   4.518901   6.140184
    49  C    6.077707   6.142882   8.156798   5.356736   6.879065
    50  H    5.720563   6.081630   7.982251   5.147053   6.496491
                   31         32         33         34         35
    31  H    0.000000
    32  H    1.740122   0.000000
    33  H    2.452210   3.025006   0.000000
    34  H    2.518297   2.419457   1.746709   0.000000
    35  H    4.305757   3.813097   2.455804   2.519545   0.000000
    36  H    3.842745   2.707054   3.039480   2.437479   1.722367
    37  H    4.999885   4.180948   3.908449   4.329721   2.542888
    38  H    4.254521   4.078247   2.790449   3.868706   2.416879
    39  H    9.437820  10.384568   9.011309  10.683982  10.214441
    40  H    6.688230   7.446497   5.400567   7.114271   6.219304
    41  H    6.953939   7.201191   5.955750   7.431399   6.149065
    42  H   11.263927  10.678361  10.975649  11.826938  10.329563
    43  H    9.656644   9.811942   9.219943  10.597172   9.441416
    44  H    9.652456  10.235435   9.362962  10.909446  10.173613
    45  S    8.252123   9.416896   7.381521   9.114175   8.761323
    46  O    8.530662   9.629363   7.240525   8.970242   8.383267
    47  H    7.019702   8.481051   6.452386   8.054688   8.353110
    48  H    5.877859   7.149422   5.096405   6.789683   6.808801
    49  C    6.718025   8.051741   6.134893   7.801166   7.893673
    50  H    6.575448   7.913293   6.377069   7.979989   8.225275
                   36         37         38         39         40
    36  H    0.000000
    37  H    2.432291   0.000000
    38  H    3.000580   1.741085   0.000000
    39  H   10.839059   9.361439   8.036286   0.000000
    40  H    7.190560   5.815645   4.294972   4.299331   0.000000
    41  H    6.730213   4.752618   3.813480   4.947818   2.468870
    42  H   10.071414   7.850810   8.380276   9.339595   8.850453
    43  H    9.682963   7.555537   7.053495   4.738038   5.357592
    44  H   10.550846   8.748272   7.794216   2.445576   4.942092
    45  S    9.704198   8.612047   7.002513   2.890880   2.941614
    46  O    9.549978   8.470609   6.853221   4.126951   2.815349
    47  H    9.212167   8.730718   7.016828   4.757343   4.049046
    48  H    7.654764   6.999483   5.295621   4.556666   2.549111
    49  C    8.699569   7.995607   6.316953   3.951388   3.154788
    50  H    8.833280   8.130627   6.526797   3.695380   3.670185
                   41         42         43         44         45
    41  H    0.000000
    42  H    6.412651   0.000000
    43  H    3.551523   4.634023   0.000000
    44  H    4.283582   7.089449   2.537916   0.000000
    45  S    4.942291  10.802242   6.518139   4.894472   0.000000
    46  O    5.095360  11.196022   7.138296   5.892596   1.528375
    47  H    6.194724  12.251926   8.256525   6.677063   2.444179
    48  H    4.600240  10.772510   7.078126   5.951184   2.454572
    49  C    5.167914  11.167603   7.180809   5.688811   1.851032
    50  H    5.271364  10.907158   6.920913   5.300747   2.457769
                   46         47         48         49         50
    46  O    0.000000
    47  H    3.048698   0.000000
    48  H    2.876691   1.765592   0.000000
    49  C    2.714426   1.089243   1.089819   0.000000
    50  H    3.638571   1.768432   1.773253   1.088582   0.000000
 Stoichiometry    C19H23N5O2S
 Framework group  C1[X(C19H23N5O2S)]
 Deg. of freedom   144
 Full point group                 C1      NOp   1
 Largest Abelian subgroup         C1      NOp   1
 Largest concise Abelian subgroup C1      NOp   1
                         Standard orientation:                         
 ---------------------------------------------------------------------
 Center     Atomic      Atomic             Coordinates (Angstroms)
 Number     Number       Type             X           Y           Z
 ---------------------------------------------------------------------
      1          6           0        1.302134   -2.262567   -0.189257
      2          6           0        5.678729   -2.124619    0.445581
      3          6           0        1.441639    1.558938   -0.472158
      4          6           0        1.506805    3.097731   -0.308244
      5          6           0        0.521800    3.697746   -1.332834
      6          6           0        0.181426    5.174943   -1.072109
      7          6           0       -0.203780    5.524380    0.372688
      8          6           0        0.809048    4.949084    1.388345
      9          6           0        1.150061    3.460620    1.168285
     10          6           0       -3.434234   -2.648404   -0.698146
     11          6           0       -3.715016   -1.498851    0.034986
     12          6           0       -2.704763   -0.831073    0.728279
     13          6           0       -1.398013   -1.310226    0.656878
     14          7           0        1.503861   -0.838734   -0.447287
     15          6           0        2.662119   -0.270130   -0.377595
     16          8           0        2.789947    1.045844   -0.615732
     17          6           0        3.806135   -1.100357   -0.051717
     18          7           0        5.222793   -0.983339    0.142090
     19          7           0        4.728931   -3.028100    0.476663
     20          6           0        3.626789   -2.407902    0.176678
     21          7           0        2.317700   -2.964759    0.109190
     22          7           0        0.205899   -2.956599   -0.198031
     23          6           0       -1.099039   -2.455037   -0.093005
     24          6           0       -2.130548   -3.129514   -0.741073
     25          1           0        6.703563   -2.367378    0.638444
     26          1           0        0.881267    1.309849   -1.380940
     27          1           0        0.851679    1.197769    0.381359
     28          1           0        2.506304    3.471681   -0.535435
     29          1           0       -0.424411    3.152366   -1.301547
     30          1           0        0.906478    3.575873   -2.347355
     31          1           0       -0.596223    5.514298   -1.756485
     32          1           0        1.070425    5.752151   -1.316328
     33          1           0       -1.190624    5.110737    0.588117
     34          1           0       -0.291064    6.604957    0.492773
     35          1           0        0.467680    5.142768    2.399188
     36          1           0        1.736901    5.517746    1.296909
     37          1           0        1.954336    3.156901    1.840205
     38          1           0        0.265586    2.910222    1.495749
     39          1           0       -4.220548   -3.182834   -1.211863
     40          1           0       -2.934002    0.050884    1.312442
     41          1           0       -0.615211   -0.787071    1.184544
     42          1           0        4.894237   -4.023610    0.643350
     43          1           0        0.322901   -3.957036   -0.113371
     44          1           0       -1.928897   -4.033910   -1.281494
     45         16           0       -5.434663   -0.908654    0.096272
     46          8           0       -5.688884   -0.482241    1.541773
     47          1           0       -6.072758    1.192804   -0.976445
     48          1           0       -4.426859    1.285706   -0.344229
     49          6           0       -5.137912    0.644934   -0.865303
     50          1           0       -4.749206    0.417311   -1.856316
 ---------------------------------------------------------------------
 Rotational constants (GHZ):           0.1721147           0.1121660           0.0719545
 Leave Link  202 at Thu Jan 30 14:39:58 2025, MaxMem=   104857600 cpu:               0.0 elap:               0.0
 (Enter /home/pb777/GAUSSIAN/g16/l301.exe)
 Standard basis: 6-31G(d) (6D, 7F)
 Ernie: Thresh=  0.10000D-02 Tol=  0.10000D-05 Strict=F.
 There are   455 symmetry adapted cartesian basis functions of A   symmetry.
 There are   455 symmetry adapted basis functions of A   symmetry.
   455 basis functions,   872 primitive gaussians,   455 cartesian basis functions
   102 alpha electrons      102 beta electrons
       nuclear repulsion energy      2544.1290311606 Hartrees.
 IExCor=    0 DFT=F Ex=HF Corr=None ExCW=0 ScaHFX=  1.000000
 ScaDFX=  1.000000  1.000000  1.000000  1.000000 ScalE2=  1.000000  1.000000
 IRadAn=      5 IRanWt=     -1 IRanGd=            0 ICorTp=0 IEmpDi=  4
 NAtoms=   50 NActive=   50 NUniq=   50 SFac= 1.00D+00 NAtFMM=   60 NAOKFM=F Big=F
 Integral buffers will be    131072 words long.
 Raffenetti 1 integral format.
 Two-electron integral symmetry is turned on.
 Leave Link  301 at Thu Jan 30 14:39:58 2025, MaxMem=   104857600 cpu:               0.0 elap:               0.0
 (Enter /home/pb777/GAUSSIAN/g16/l302.exe)
 NPDir=0 NMtPBC=     1 NCelOv=     1 NCel=       1 NClECP=     1 NCelD=      1
         NCelK=      1 NCelE2=     1 NClLst=     1 CellRange=     0.0.
 One-electron integrals computed using PRISM.
 One-electron integral symmetry used in STVInt
 NBasis=   455 RedAO= T EigKep=  4.30D-04  NBF=   455
 NBsUse=   455 1.00D-06 EigRej= -1.00D+00 NBFU=   455
 Leave Link  302 at Thu Jan 30 14:39:58 2025, MaxMem=   104857600 cpu:               0.2 elap:               0.2
 (Enter /home/pb777/GAUSSIAN/g16/l303.exe)
 DipDrv:  MaxL=1.
 Leave Link  303 at Thu Jan 30 14:39:58 2025, MaxMem=   104857600 cpu:               0.0 elap:               0.0
 (Enter /home/pb777/GAUSSIAN/g16/l401.exe)
 ExpMin= 1.17D-01 ExpMax= 2.19D+04 ExpMxC= 3.30D+03 IAcc=3 IRadAn=         5 AccDes= 0.00D+00
 Harris functional with IExCor=  205 and IRadAn=       5 diagonalized for initial guess.
 HarFok:  IExCor=  205 AccDes= 0.00D+00 IRadAn=         5 IDoV= 1 UseB2=F ITyADJ=14
 ICtDFT=  3500011 ScaDFX=  1.000000  1.000000  1.000000  1.000000
 FoFCou: FMM=F IPFlag=           0 FMFlag=      100000 FMFlg1=           0
         NFxFlg=           0 DoJE=T BraDBF=F KetDBF=T FulRan=T
         wScrn=  0.000000 ICntrl=       500 IOpCl=  0 I1Cent=   200000004 NGrid=           0
         NMat0=    1 NMatS0=      1 NMatT0=    0 NMatD0=    1 NMtDS0=    0 NMtDT0=    0
 Petite list used in FoFCou.
 Harris En= -1553.43588424630    
 JPrj=0 DoOrth=F DoCkMO=F.
 Leave Link  401 at Thu Jan 30 14:40:06 2025, MaxMem=   104857600 cpu:               8.5 elap:               8.6
 (Enter /home/pb777/GAUSSIAN/g16/l502.exe)
 Integral symmetry usage will be decided dynamically.
 Closed shell SCF:
 Using DIIS extrapolation, IDIIS=  1040.
 NGot=   104857600 LenX=   104435758 LenY=   104228278
 Requested convergence on RMS density matrix=1.00D-08 within 128 cycles.
 Requested convergence on MAX density matrix=1.00D-06.
 Requested convergence on             energy=1.00D-06.
 No special actions if energy rises.
 Fock matrices will be formed incrementally for  20 cycles.
 Integral accuracy reduced to 1.0D-05 until final iterations.

 Cycle   1  Pass 0  IDiag  1:
 FoFJK:  IHMeth= 1 ICntrl=       0 DoSepK=F KAlg= 0 I1Cent=           0 FoldK=F
 IRaf= 680000000 NMat=       1 IRICut=       1 DoRegI=T DoRafI=F ISym2E= 0 IDoP0=0 IntGTp=1.
 FoFCou: FMM=F IPFlag=           0 FMFlag=      100000 FMFlg1=           0
         NFxFlg=           0 DoJE=F BraDBF=F KetDBF=F FulRan=T
         wScrn=  0.000000 ICntrl=         0 IOpCl=  0 I1Cent=           0 NGrid=           0
         NMat0=    1 NMatS0=      1 NMatT0=    0 NMatD0=    1 NMtDS0=    0 NMtDT0=    0
 Symmetry not used in FoFCou.
 E= -1551.12556182716    
 DIIS: error= 5.74D-02 at cycle   1 NSaved=   1.
 NSaved= 1 IEnMin= 1 EnMin= -1551.12556182716     IErMin= 1 ErrMin= 5.74D-02
 ErrMax= 5.74D-02  0.00D+00 EMaxC= 1.00D-01 BMatC= 1.88D+00 BMatP= 1.88D+00
 IDIUse=3 WtCom= 4.26D-01 WtEn= 5.74D-01
 Coeff-Com:  0.100D+01
 Coeff-En:   0.100D+01
 Coeff:      0.100D+01
 Gap=     0.505 Goal=   None    Shift=    0.000
 GapD=    0.505 DampG=2.000 DampE=0.500 DampFc=1.0000 IDamp=-1.
 RMSDP=3.77D-03 MaxDP=1.37D-01              OVMax= 1.33D-01

 Cycle   2  Pass 0  IDiag  1:
 RMSU=  3.71D-03    CP:  9.58D-01
 E= -1552.03249807958     Delta-E=       -0.906936252414 Rises=F Damp=F
 DIIS: error= 1.75D-02 at cycle   2 NSaved=   2.
 NSaved= 2 IEnMin= 2 EnMin= -1552.03249807958     IErMin= 2 ErrMin= 1.75D-02
 ErrMax= 1.75D-02  0.00D+00 EMaxC= 1.00D-01 BMatC= 2.48D-01 BMatP= 1.88D+00
 IDIUse=3 WtCom= 8.25D-01 WtEn= 1.75D-01
 Coeff-Com:  0.191D+00 0.809D+00
 Coeff-En:   0.000D+00 0.100D+01
 Coeff:      0.157D+00 0.843D+00
 Gap=     0.424 Goal=   None    Shift=    0.000
 RMSDP=1.56D-03 MaxDP=1.37D-01 DE=-9.07D-01 OVMax= 7.93D-02

 Cycle   3  Pass 0  IDiag  1:
 RMSU=  1.27D-03    CP:  9.61D-01  7.55D-01
 E= -1552.21427307647     Delta-E=       -0.181774996892 Rises=F Damp=F
 DIIS: error= 9.08D-03 at cycle   3 NSaved=   3.
 NSaved= 3 IEnMin= 3 EnMin= -1552.21427307647     IErMin= 3 ErrMin= 9.08D-03
 ErrMax= 9.08D-03  0.00D+00 EMaxC= 1.00D-01 BMatC= 3.63D-02 BMatP= 2.48D-01
 IDIUse=3 WtCom= 9.09D-01 WtEn= 9.08D-02
 Coeff-Com: -0.188D-01 0.249D+00 0.770D+00
 Coeff-En:   0.000D+00 0.000D+00 0.100D+01
 Coeff:     -0.171D-01 0.226D+00 0.791D+00
 Gap=     0.398 Goal=   None    Shift=    0.000
 RMSDP=4.67D-04 MaxDP=3.87D-02 DE=-1.82D-01 OVMax= 3.73D-02

 Cycle   4  Pass 0  IDiag  1:
 RMSU=  2.65D-04    CP:  9.60D-01  8.38D-01  8.18D-01
 E= -1552.24339580482     Delta-E=       -0.029122728352 Rises=F Damp=F
 DIIS: error= 2.92D-03 at cycle   4 NSaved=   4.
 NSaved= 4 IEnMin= 4 EnMin= -1552.24339580482     IErMin= 4 ErrMin= 2.92D-03
 ErrMax= 2.92D-03  0.00D+00 EMaxC= 1.00D-01 BMatC= 2.13D-03 BMatP= 3.63D-02
 IDIUse=3 WtCom= 9.71D-01 WtEn= 2.92D-02
 Coeff-Com: -0.111D-01 0.456D-01 0.262D+00 0.704D+00
 Coeff-En:   0.000D+00 0.000D+00 0.000D+00 0.100D+01
 Coeff:     -0.107D-01 0.442D-01 0.254D+00 0.712D+00
 Gap=     0.399 Goal=   None    Shift=    0.000
 RMSDP=1.37D-04 MaxDP=1.01D-02 DE=-2.91D-02 OVMax= 1.29D-02

 Cycle   5  Pass 0  IDiag  1:
 RMSU=  9.27D-05    CP:  9.59D-01  8.33D-01  8.83D-01  7.99D-01
 E= -1552.24530338347     Delta-E=       -0.001907578649 Rises=F Damp=F
 DIIS: error= 5.96D-04 at cycle   5 NSaved=   5.
 NSaved= 5 IEnMin= 5 EnMin= -1552.24530338347     IErMin= 5 ErrMin= 5.96D-04
 ErrMax= 5.96D-04  0.00D+00 EMaxC= 1.00D-01 BMatC= 1.25D-04 BMatP= 2.13D-03
 IDIUse=3 WtCom= 9.94D-01 WtEn= 5.96D-03
 Coeff-Com:  0.109D-02-0.193D-01-0.569D-01 0.705D-01 0.100D+01
 Coeff-En:   0.000D+00 0.000D+00 0.000D+00 0.000D+00 0.100D+01
 Coeff:      0.108D-02-0.192D-01-0.565D-01 0.701D-01 0.100D+01
 Gap=     0.399 Goal=   None    Shift=    0.000
 RMSDP=4.59D-05 MaxDP=2.89D-03 DE=-1.91D-03 OVMax= 3.73D-03

 Cycle   6  Pass 0  IDiag  1:
 RMSU=  2.81D-05    CP:  9.59D-01  8.34D-01  8.98D-01  9.06D-01  1.13D+00
 E= -1552.24552815935     Delta-E=       -0.000224775886 Rises=F Damp=F
 DIIS: error= 1.61D-04 at cycle   6 NSaved=   6.
 NSaved= 6 IEnMin= 6 EnMin= -1552.24552815935     IErMin= 6 ErrMin= 1.61D-04
 ErrMax= 1.61D-04  0.00D+00 EMaxC= 1.00D-01 BMatC= 1.52D-05 BMatP= 1.25D-04
 IDIUse=3 WtCom= 9.98D-01 WtEn= 1.61D-03
 Coeff-Com:  0.135D-02-0.865D-02-0.388D-01-0.686D-01 0.154D+00 0.961D+00
 Coeff-En:   0.000D+00 0.000D+00 0.000D+00 0.000D+00 0.000D+00 0.100D+01
 Coeff:      0.135D-02-0.864D-02-0.388D-01-0.685D-01 0.154D+00 0.961D+00
 Gap=     0.400 Goal=   None    Shift=    0.000
 RMSDP=2.09D-05 MaxDP=1.06D-03 DE=-2.25D-04 OVMax= 1.65D-03

 Cycle   7  Pass 0  IDiag  1:
 RMSU=  1.04D-05    CP:  9.59D-01  8.34D-01  9.04D-01  9.26D-01  1.29D+00
                    CP:  1.15D+00
 E= -1552.24556623373     Delta-E=       -0.000038074372 Rises=F Damp=F
 DIIS: error= 6.92D-05 at cycle   7 NSaved=   7.
 NSaved= 7 IEnMin= 7 EnMin= -1552.24556623373     IErMin= 7 ErrMin= 6.92D-05
 ErrMax= 6.92D-05  0.00D+00 EMaxC= 1.00D-01 BMatC= 2.64D-06 BMatP= 1.52D-05
 IDIUse=1 WtCom= 1.00D+00 WtEn= 0.00D+00
 Coeff-Com:  0.494D-04 0.121D-02 0.201D-02-0.204D-01-0.112D+00 0.140D+00
 Coeff-Com:  0.989D+00
 Coeff:      0.494D-04 0.121D-02 0.201D-02-0.204D-01-0.112D+00 0.140D+00
 Coeff:      0.989D+00
 Gap=     0.400 Goal=   None    Shift=    0.000
 RMSDP=8.85D-06 MaxDP=5.14D-04 DE=-3.81D-05 OVMax= 8.67D-04

 Initial convergence to 1.0D-05 achieved.  Increase integral accuracy.
 Cycle   8  Pass 1  IDiag  1:
 E= -1552.24557683324     Delta-E=       -0.000010599515 Rises=F Damp=F
 DIIS: error= 6.92D-05 at cycle   1 NSaved=   1.
 NSaved= 1 IEnMin= 1 EnMin= -1552.24557683324     IErMin= 1 ErrMin= 6.92D-05
 ErrMax= 6.92D-05  0.00D+00 EMaxC= 1.00D-01 BMatC= 1.61D-06 BMatP= 1.61D-06
 IDIUse=1 WtCom= 1.00D+00 WtEn= 0.00D+00
 Coeff-Com:  0.100D+01
 Coeff:      0.100D+01
 Gap=     0.400 Goal=   None    Shift=    0.000
 RMSDP=8.85D-06 MaxDP=5.14D-04 DE=-1.06D-05 OVMax= 3.39D-04

 Cycle   9  Pass 1  IDiag  1:
 RMSU=  2.50D-05    CP:  1.00D+00
 E= -1552.24557868624     Delta-E=       -0.000001852999 Rises=F Damp=F
 DIIS: error= 1.42D-05 at cycle   2 NSaved=   2.
 NSaved= 2 IEnMin= 2 EnMin= -1552.24557868624     IErMin= 2 ErrMin= 1.42D-05
 ErrMax= 1.42D-05  0.00D+00 EMaxC= 1.00D-01 BMatC= 1.96D-07 BMatP= 1.61D-06
 IDIUse=1 WtCom= 1.00D+00 WtEn= 0.00D+00
 Coeff-Com:  0.822D-01 0.918D+00
 Coeff:      0.822D-01 0.918D+00
 Gap=     0.400 Goal=   None    Shift=    0.000
 RMSDP=2.11D-06 MaxDP=9.06D-05 DE=-1.85D-06 OVMax= 2.25D-04

 Cycle  10  Pass 1  IDiag  1:
 RMSU=  1.84D-06    CP:  1.00D+00  1.04D+00
 E= -1552.24557903202     Delta-E=       -0.000000345783 Rises=F Damp=F
 DIIS: error= 1.76D-05 at cycle   3 NSaved=   3.
 NSaved= 3 IEnMin= 3 EnMin= -1552.24557903202     IErMin= 2 ErrMin= 1.42D-05
 ErrMax= 1.76D-05  0.00D+00 EMaxC= 1.00D-01 BMatC= 8.45D-08 BMatP= 1.96D-07
 IDIUse=1 WtCom= 1.00D+00 WtEn= 0.00D+00
 Coeff-Com: -0.688D-01 0.323D+00 0.746D+00
 Coeff:     -0.688D-01 0.323D+00 0.746D+00
 Gap=     0.400 Goal=   None    Shift=    0.000
 RMSDP=9.89D-07 MaxDP=3.87D-05 DE=-3.46D-07 OVMax= 1.28D-04

 Cycle  11  Pass 1  IDiag  1:
 RMSU=  9.35D-07    CP:  1.00D+00  1.05D+00  1.03D+00
 E= -1552.24557919449     Delta-E=       -0.000000162470 Rises=F Damp=F
 DIIS: error= 4.82D-06 at cycle   4 NSaved=   4.
 NSaved= 4 IEnMin= 4 EnMin= -1552.24557919449     IErMin= 4 ErrMin= 4.82D-06
 ErrMax= 4.82D-06  0.00D+00 EMaxC= 1.00D-01 BMatC= 1.51D-08 BMatP= 8.45D-08
 IDIUse=1 WtCom= 1.00D+00 WtEn= 0.00D+00
 Coeff-Com:  0.110D-01-0.414D+00-0.365D+00 0.177D+01
 Coeff:      0.110D-01-0.414D+00-0.365D+00 0.177D+01
 Gap=     0.400 Goal=   None    Shift=    0.000
 RMSDP=1.17D-06 MaxDP=5.62D-05 DE=-1.62D-07 OVMax= 1.39D-04

 Cycle  12  Pass 1  IDiag  1:
 RMSU=  3.22D-07    CP:  1.00D+00  1.06D+00  1.46D+00  1.84D+00
 E= -1552.24557927715     Delta-E=       -0.000000082656 Rises=F Damp=F
 DIIS: error= 1.48D-06 at cycle   5 NSaved=   5.
 NSaved= 5 IEnMin= 5 EnMin= -1552.24557927715     IErMin= 5 ErrMin= 1.48D-06
 ErrMax= 1.48D-06  0.00D+00 EMaxC= 1.00D-01 BMatC= 1.53D-09 BMatP= 1.51D-08
 IDIUse=1 WtCom= 1.00D+00 WtEn= 0.00D+00
 Coeff-Com:  0.970D-02-0.162D+00-0.188D+00 0.571D+00 0.770D+00
 Coeff:      0.970D-02-0.162D+00-0.188D+00 0.571D+00 0.770D+00
 Gap=     0.400 Goal=   None    Shift=    0.000
 RMSDP=2.00D-07 MaxDP=9.25D-06 DE=-8.27D-08 OVMax= 2.36D-05

 Cycle  13  Pass 1  IDiag  1:
 RMSU=  9.81D-08    CP:  1.00D+00  1.06D+00  1.52D+00  1.99D+00  1.09D+00
 E= -1552.24557928102     Delta-E=       -0.000000003868 Rises=F Damp=F
 DIIS: error= 6.66D-07 at cycle   6 NSaved=   6.
 NSaved= 6 IEnMin= 6 EnMin= -1552.24557928102     IErMin= 6 ErrMin= 6.66D-07
 ErrMax= 6.66D-07  0.00D+00 EMaxC= 1.00D-01 BMatC= 2.19D-10 BMatP= 1.53D-09
 IDIUse=1 WtCom= 1.00D+00 WtEn= 0.00D+00
 Coeff-Com: -0.297D-02 0.880D-01 0.766D-01-0.350D+00-0.900D-01 0.128D+01
 Coeff:     -0.297D-02 0.880D-01 0.766D-01-0.350D+00-0.900D-01 0.128D+01
 Gap=     0.400 Goal=   None    Shift=    0.000
 RMSDP=1.02D-07 MaxDP=3.07D-06 DE=-3.87D-09 OVMax= 1.25D-05

 Cycle  14  Pass 1  IDiag  1:
 RMSU=  5.95D-08    CP:  1.00D+00  1.06D+00  1.53D+00  2.02D+00  1.30D+00
                    CP:  1.38D+00
 E= -1552.24557928190     Delta-E=       -0.000000000883 Rises=F Damp=F
 DIIS: error= 3.43D-07 at cycle   7 NSaved=   7.
 NSaved= 7 IEnMin= 7 EnMin= -1552.24557928190     IErMin= 7 ErrMin= 3.43D-07
 ErrMax= 3.43D-07  0.00D+00 EMaxC= 1.00D-01 BMatC= 4.06D-11 BMatP= 2.19D-10
 IDIUse=1 WtCom= 1.00D+00 WtEn= 0.00D+00
 Coeff-Com: -0.271D-02 0.539D-01 0.547D-01-0.195D+00-0.177D+00 0.276D+00
 Coeff-Com:  0.990D+00
 Coeff:     -0.271D-02 0.539D-01 0.547D-01-0.195D+00-0.177D+00 0.276D+00
 Coeff:      0.990D+00
 Gap=     0.400 Goal=   None    Shift=    0.000
 RMSDP=4.24D-08 MaxDP=2.32D-06 DE=-8.83D-10 OVMax= 5.28D-06

 Cycle  15  Pass 1  IDiag  1:
 RMSU=  1.85D-08    CP:  1.00D+00  1.06D+00  1.53D+00  2.02D+00  1.36D+00
                    CP:  1.59D+00  1.36D+00
 E= -1552.24557928203     Delta-E=       -0.000000000125 Rises=F Damp=F
 DIIS: error= 9.84D-08 at cycle   8 NSaved=   8.
 NSaved= 8 IEnMin= 8 EnMin= -1552.24557928203     IErMin= 8 ErrMin= 9.84D-08
 ErrMax= 9.84D-08  0.00D+00 EMaxC= 1.00D-01 BMatC= 4.16D-12 BMatP= 4.06D-11
 IDIUse=1 WtCom= 1.00D+00 WtEn= 0.00D+00
 Coeff-Com:  0.473D-03-0.133D-01-0.127D-01 0.535D-01 0.165D-01-0.186D+00
 Coeff-Com: -0.236D-01 0.117D+01
 Coeff:      0.473D-03-0.133D-01-0.127D-01 0.535D-01 0.165D-01-0.186D+00
 Coeff:     -0.236D-01 0.117D+01
 Gap=     0.400 Goal=   None    Shift=    0.000
 RMSDP=1.61D-08 MaxDP=6.04D-07 DE=-1.25D-10 OVMax= 1.97D-06

 Cycle  16  Pass 1  IDiag  1:
 RMSU=  6.39D-09    CP:  1.00D+00  1.06D+00  1.53D+00  2.02D+00  1.38D+00
                    CP:  1.64D+00  1.57D+00  1.24D+00
 E= -1552.24557928206     Delta-E=       -0.000000000035 Rises=F Damp=F
 DIIS: error= 3.79D-08 at cycle   9 NSaved=   9.
 NSaved= 9 IEnMin= 9 EnMin= -1552.24557928206     IErMin= 9 ErrMin= 3.79D-08
 ErrMax= 3.79D-08  0.00D+00 EMaxC= 1.00D-01 BMatC= 5.24D-13 BMatP= 4.16D-12
 IDIUse=1 WtCom= 1.00D+00 WtEn= 0.00D+00
 Coeff-Com:  0.354D-03-0.756D-02-0.771D-02 0.284D-01 0.210D-01-0.563D-01
 Coeff-Com: -0.117D+00 0.168D+00 0.970D+00
 Coeff:      0.354D-03-0.756D-02-0.771D-02 0.284D-01 0.210D-01-0.563D-01
 Coeff:     -0.117D+00 0.168D+00 0.970D+00
 Gap=     0.400 Goal=   None    Shift=    0.000
 RMSDP=4.02D-09 MaxDP=2.54D-07 DE=-3.46D-11 OVMax= 6.20D-07

 SCF Done:  E(RHF) =  -1552.24557928     A.U. after   16 cycles
            NFock= 16  Conv=0.40D-08     -V/T= 2.0014
 KE= 1.550152805387D+03 PE=-8.732267577668D+03 EE= 3.085740161838D+03
 Leave Link  502 at Thu Jan 30 14:42:07 2025, MaxMem=   104857600 cpu:             119.7 elap:             120.2
 (Enter /home/pb777/GAUSSIAN/g16/l801.exe)
 Range of M.O.s used for correlation:     1   455
 NBasis=   455 NAE=   102 NBE=   102 NFC=     0 NFV=     0
 NROrb=    455 NOA=   102 NOB=   102 NVA=   353 NVB=   353
 Leave Link  801 at Thu Jan 30 14:42:07 2025, MaxMem=   104857600 cpu:               0.0 elap:               0.0
 (Enter /home/pb777/GAUSSIAN/g16/l1101.exe)
 Using compressed storage, NAtomX=    50.
 Will process     51 centers per pass.
 Leave Link 1101 at Thu Jan 30 14:42:07 2025, MaxMem=   104857600 cpu:               0.4 elap:               0.4
 (Enter /home/pb777/GAUSSIAN/g16/l1102.exe)
 Symmetrizing basis deriv contribution to polar:
 IMax=3 JMax=2 DiffMx= 0.00D+00
 Leave Link 1102 at Thu Jan 30 14:42:07 2025, MaxMem=   104857600 cpu:               0.0 elap:               0.0
 (Enter /home/pb777/GAUSSIAN/g16/l1110.exe)
 Forming Gx(P) for the SCF density, NAtomX=    50.
 Integral derivatives from FoFJK, PRISM(SPDF).
 Do as many integral derivatives as possible in FoFJK.
 G2DrvN: MDV=     104853864.
 G2DrvN: will do    51 centers at a time, making    1 passes.
 Calling FoFCou, ICntrl=  3107 FMM=F I1Cent=   0 AccDes= 0.00D+00.
 FoFJK:  IHMeth= 1 ICntrl=    3107 DoSepK=F KAlg= 0 I1Cent=           0 FoldK=F
 IRaf=         0 NMat=       1 IRICut=       1 DoRegI=T DoRafI=F ISym2E= 0 IDoP0=0 IntGTp=1.
 FoFCou: FMM=F IPFlag=           0 FMFlag=      100000 FMFlg1=           0
         NFxFlg=           0 DoJE=F BraDBF=F KetDBF=F FulRan=T
         wScrn=  0.000000 ICntrl=      3107 IOpCl=  0 I1Cent=           0 NGrid=           0
         NMat0=    1 NMatS0=      1 NMatT0=    0 NMatD0=    1 NMtDS0=    0 NMtDT0=    0
 Symmetry not used in FoFCou.
[...]
 1366 Fit       0.007972
 1367 Fit       0.013793
 1368 Fit       0.015149
 1369 Fit       0.017845
 1370 Fit       0.024046
 1371 Fit       0.020822
 1372 Fit       0.019103
 1373 Fit       0.021051
 1374 Fit       0.025359
 1375 Fit       0.018729
 1376 Fit       0.019307
 1377 Fit       0.018955
 1378 Fit       0.011222
 1379 Fit       0.014754
 1380 Fit      -0.031389
 1381 Fit      -0.023288
 1382 Fit      -0.028291
 1383 Fit      -0.021298
 1384 Fit      -0.015237
 1385 Fit      -0.013484
 1386 Fit      -0.032612
 1387 Fit      -0.014951
 1388 Fit      -0.011195
 1389 Fit      -0.008189
 1390 Fit      -0.009946
 1391 Fit      -0.029176
 1392 Fit      -0.019736
 1393 Fit      -0.009914
 1394 Fit      -0.007281
 1395 Fit      -0.003073
 1396 Fit      -0.021584
 1397 Fit      -0.013956
 1398 Fit      -0.011216
 1399 Fit      -0.003521
 1400 Fit      -0.000768
 1401 Fit       0.006048
 1402 Fit      -0.003440
 1403 Fit      -0.002269
 1404 Fit      -0.003215
 1405 Fit       0.005012
 1406 Fit       0.009065
 1407 Fit       0.005718
 1408 Fit       0.014235
 1409 Fit       0.020684
 1410 Fit      -0.046065
 1411 Fit      -0.045855
 1412 Fit      -0.040421
 1413 Fit      -0.038168
 1414 Fit      -0.041130
 1415 Fit      -0.047161
 1416 Fit      -0.049198
 1417 Fit      -0.038085
 1418 Fit      -0.045365
 1419 Fit      -0.048426
 1420 Fit      -0.049043
 1421 Fit      -0.046313
 1422 Fit      -0.037863
 1423 Fit      -0.043808
 1424 Fit      -0.046004
 1425 Fit      -0.045797
 1426 Fit      -0.042703
 1427 Fit      -0.031784
 1428 Fit      -0.037818
 1429 Fit      -0.039075
 1430 Fit      -0.036179
 1431 Fit      -0.011748
 1432 Fit      -0.005550
 1433 Fit       0.009066
 1434 Fit      -0.000661
 1435 Fit       0.002225
 1436 Fit       0.004973
 1437 Fit       0.007147
 1438 Fit       0.011475
 1439 Fit       0.004734
 1440 Fit       0.006187
 1441 Fit       0.008247
 1442 Fit       0.009873
 1443 Fit       0.012125
 1444 Fit       0.008407
 1445 Fit       0.010064
 1446 Fit      -0.006175
 1447 Fit      -0.013319
 1448 Fit      -0.003657
 1449 Fit       0.001477
 1450 Fit       0.002094
 1451 Fit      -0.000200
 1452 Fit      -0.003056
 1453 Fit       0.003307
 1454 Fit       0.005081
 1455 Fit       0.005472
 1456 Fit       0.004245
 1457 Fit       0.007283
 1458 Fit       0.006862
 1459 Fit      -0.019947
 1460 Fit      -0.003615
 1461 Fit       0.012963
 1462 Fit       0.001679
 1463 Fit       0.007978
 1464 Fit       0.006415
 1465 Fit       0.009561
 1466 Fit       0.008819
 1467 Fit       0.010876
 1468 Fit       0.016098
 1469 Fit       0.020162
 1470 Fit       0.022378
 1471 Fit       0.016725
 1472 Fit       0.009955
 1473 Fit       0.008394
 1474 Fit       0.015634
 1475 Fit       0.017463
 1476 Fit       0.014401
 1477 Fit       0.011464
 1478 Fit       0.012949
 1479 Fit       0.014070
 1480 Fit      -0.007771
 1481 Fit      -0.004704
 1482 Fit      -0.003112
 1483 Fit      -0.004103
 1484 Fit      -0.005790
 1485 Fit      -0.006384
 1486 Fit      -0.000645
 1487 Fit       0.004571
 1488 Fit       0.006990
 1489 Fit       0.009348
 1490 Fit       0.014277
 1491 Fit      -0.006395
 1492 Fit       0.009217
 1493 Fit      -0.001554
 1494 Fit       0.021622
 1495 Fit       0.011458
 1496 Fit       0.002184
 1497 Fit      -0.003743
 1498 Fit      -0.004779
 1499 Fit      -0.007049
 1500 Fit      -0.003543
 1501 Fit      -0.001573
 1502 Fit      -0.002122
 1503 Fit      -0.002242
 1504 Fit      -0.002056
 1505 Fit      -0.001065
 1506 Fit      -0.002698
 1507 Fit      -0.002211
 1508 Fit      -0.003218
 1509 Fit      -0.003357
 1510 Fit      -0.002945
 1511 Fit      -0.002390
 1512 Fit      -0.003992
 1513 Fit      -0.002669
 1514 Fit      -0.007160
 1515 Fit      -0.009505
 1516 Fit      -0.004625
 1517 Fit      -0.007466
 1518 Fit      -0.009644
 1519 Fit      -0.015526
 1520 Fit      -0.008704
 1521 Fit      -0.001837
 1522 Fit      -0.002706
 1523 Fit       0.005432
 1524 Fit      -0.001116
 1525 Fit       0.015361
 1526 Fit       0.005083
 1527 Fit       0.012464
 1528 Fit      -0.016443
 1529 Fit      -0.011770
 1530 Fit      -0.018327
 1531 Fit      -0.014275
 1532 Fit      -0.002541
 1533 Fit      -0.016891
 1534 Fit      -0.016780
 1535 Fit      -0.003663
 1536 Fit      -0.004645
 1537 Fit      -0.006878
 1538 Fit      -0.005406
 1539 Fit      -0.012787
 1540 Fit      -0.010484
 1541 Fit      -0.014216
 1542 Fit      -0.011485
 1543 Fit      -0.015991
 1544 Fit      -0.007325
 1545 Fit      -0.006226
 1546 Fit      -0.008139
 1547 Fit      -0.007814
 1548 Fit      -0.008381
 1549 Fit      -0.008339
 1550 Fit      -0.006224
 1551 Fit      -0.002670
 1552 Fit      -0.003837
 1553 Fit      -0.005643
 1554 Fit      -0.010840
 1555 Fit      -0.004109
 1556 Fit      -0.005425
 1557 Fit      -0.012767
 1558 Fit      -0.006475
 1559 Fit      -0.006114
 1560 Fit      -0.003533
 1561 Fit      -0.015801
 1562 Fit      -0.014164
 1563 Fit      -0.007192
 1564 Fit      -0.007320
 1565 Fit      -0.012646
 1566 Fit      -0.007586
 1567 Fit      -0.005907
 1568 Fit      -0.022275
 1569 Fit      -0.018282
 1570 Fit      -0.016648
 1571 Fit      -0.019040
 1572 Fit      -0.024832
 1573 Fit      -0.011006
 1574 Fit      -0.008802
 1575 Fit      -0.013378
 1576 Fit      -0.021760
 1577 Fit      -0.027984
 1578 Fit      -0.007997
 1579 Fit      -0.019334
 1580 Fit      -0.026922
 1581 Fit      -0.030585
 1582 Fit      -0.015126
 1583 Fit      -0.023823
 1584 Fit      -0.028006
 1585 Fit      -0.010272
 1586 Fit      -0.019521
 1587 Fit      -0.023570
 1588 Fit      -0.024653
 1589 Fit      -0.014726
 1590 Fit      -0.018094
 1591 Fit      -0.017060
 1592 Fit      -0.009809
 1593 Fit      -0.012001
 1594 Fit       0.002996
 1595 Fit       0.008475
 1596 Fit       0.004135
 1597 Fit       0.011429
 1598 Fit       0.017632
 1599 Fit       0.016517
 1600 Fit       0.024893
 1601 Fit       0.014734
 1602 Fit       0.005834
 1603 Fit       0.000806
 1604 Fit       0.020632
 1605 Fit       0.010961
 1606 Fit       0.003874
 1607 Fit       0.011093
 1608 Fit      -0.003806
 1609 Fit      -0.002364
 1610 Fit      -0.000471
 1611 Fit      -0.002732
 1612 Fit       0.001448
 1613 Fit      -0.004572
 1614 Fit      -0.004540
 1615 Fit      -0.003236
 1616 Fit       0.000010
 1617 Fit      -0.002551
 1618 Fit       0.003330
 1619 Fit       0.000134
 1620 Fit       0.004521
 1621 Fit       0.001787
 1622 Fit       0.006983
 1623 Fit       0.006666
 1624 Fit       0.001619
 1625 Fit       0.007882
 1626 Fit       0.001619
 1627 Fit      -0.002749
 1628 Fit      -0.003648
 1629 Fit      -0.000100
 1630 Fit      -0.000549
 1631 Fit      -0.002964
 1632 Fit      -0.003443
 1633 Fit      -0.001902
 1634 Fit      -0.009601
 1635 Fit      -0.005504
 1636 Fit      -0.002019
 1637 Fit      -0.000617
 1638 Fit       0.008463
 1639 Fit      -0.005894
 1640 Fit      -0.003016
 1641 Fit      -0.004491
 1642 Fit       0.007407
 1643 Fit       0.001340
 1644 Fit       0.000052
 1645 Fit       0.008143
 1646 Fit      -0.010905
 1647 Fit      -0.010135
 1648 Fit      -0.005160
 1649 Fit      -0.007098
 1650 Fit      -0.001034
 1651 Fit      -0.015613
 1652 Fit      -0.007721
 1653 Fit      -0.004869
 1654 Fit      -0.002474
 1655 Fit       0.000695
 1656 Fit       0.004322
 1657 Fit       0.005158
 1658 Fit       0.007371
 1659 Fit       0.014003
 1660 Fit       0.003764
 1661 Fit      -0.001905
 1662 Fit      -0.002376
 1663 Fit       0.014399
 1664 Fit       0.004155
 1665 Fit       0.003384
 1666 Fit       0.008697
 1667 Fit       0.006396
 1668 Fit       0.015167
 1669 Fit       0.015203
 1670 Fit       0.012530
 1671 Fit       0.006447
 1672 Fit       0.022646
 1673 Fit       0.020355
 1674 Fit       0.017317
 1675 Fit       0.012725
 1676 Fit       0.005286
 1677 Fit       0.029781
 1678 Fit       0.024395
 1679 Fit       0.020179
 1680 Fit       0.015333
 1681 Fit       0.008532
 1682 Fit       0.028671
 1683 Fit       0.021660
 1684 Fit       0.015299
 1685 Fit       0.003873
 1686 Fit      -0.002852
 1687 Fit       0.001139
 1688 Fit       0.003514
 1689 Fit       0.003701
 1690 Fit       0.001605
 1691 Fit      -0.000549
 1692 Fit       0.001173
 1693 Fit      -0.001579
 1694 Fit      -0.003752
 1695 Fit      -0.000359
 1696 Fit      -0.001523
 1697 Fit      -0.002837
 1698 Fit       0.001891
 1699 Fit      -0.004589
 1700 Fit      -0.005971
 1701 Fit      -0.001645
 1702 Fit      -0.006615
 1703 Fit      -0.020242
 1704 Fit      -0.008405
 1705 Fit      -0.002492
 1706 Fit       0.000596
 1707 Fit      -0.005871
 1708 Fit      -0.001023
 1709 Fit       0.001325
 1710 Fit      -0.002590
 1711 Fit       0.001535
 1712 Fit      -0.001262
 1713 Fit       0.001352
 1714 Fit      -0.002290
 1715 Fit      -0.002613
 1716 Fit      -0.003252
 1717 Fit       0.000655
 1718 Fit      -0.005321
 1719 Fit      -0.005468
 1720 Fit      -0.003527
 1721 Fit      -0.007384
 1722 Fit      -0.007304
 1723 Fit      -0.004774
 1724 Fit      -0.000386
 1725 Fit      -0.001110
 1726 Fit      -0.002647
 1727 Fit      -0.004932
 1728 Fit      -0.005191
 1729 Fit       0.002398
 1730 Fit       0.001903
 1731 Fit       0.001071
 1732 Fit      -0.000010
 1733 Fit      -0.001655
 1734 Fit      -0.002158
 1735 Fit       0.003303
 1736 Fit       0.003292
 1737 Fit       0.002025
 1738 Fit       0.001125
 1739 Fit       0.003959
 1740 Fit      -0.001543
 1741 Fit      -0.001427
 1742 Fit      -0.001750
 1743 Fit      -0.002383
 1744 Fit      -0.001849
 1745 Fit      -0.001387
 1746 Fit      -0.001544
 1747 Fit      -0.002398
 1748 Fit      -0.003250
 1749 Fit      -0.002225
 1750 Fit      -0.001726
 1751 Fit      -0.001977
 1752 Fit      -0.003087
 1753 Fit      -0.004287
 1754 Fit      -0.002081
 1755 Fit      -0.002676
 1756 Fit      -0.003889
 1757 Fit      -0.000333
 1758 Fit       0.000298
 1759 Fit      -0.000289
 1760 Fit      -0.001406
 1761 Fit       0.000800
 1762 Fit       0.000688
 1763 Fit       0.000144
 1764 Fit      -0.000985
 1765 Fit       0.001068
 1766 Fit       0.000660
 1767 Fit      -0.000313
 1768 Fit      -0.001473
 1769 Fit       0.001236
 1770 Fit       0.000392
 1771 Fit      -0.002836
 1772 Fit      -0.001968
 1773 Fit      -0.001889
 1774 Fit      -0.002851
 1775 Fit      -0.001365
 1776 Fit      -0.001018
 1777 Fit      -0.001288
 1778 Fit      -0.002956
 1779 Fit      -0.002118
 1780 Fit      -0.001022
 1781 Fit      -0.000169
 1782 Fit      -0.002557
 1783 Fit      -0.001943
 1784 Fit      -0.001471
 1785 Fit      -0.001855
 1786 Fit      -0.001749
 1787 Fit      -0.000870
 1788 Fit      -0.000892
 1789 Fit      -0.002240
 1790 Fit      -0.001080
 1791 Fit      -0.000167
 1792 Fit      -0.000153
 1793 Fit      -0.001005
 1794 Fit      -0.002430
 1795 Fit      -0.000601
 1796 Fit      -0.000064
 1797 Fit      -0.000247
 1798 Fit      -0.000950
 1799 Fit      -0.001894
 1800 Fit      -0.000490
 1801 Fit      -0.000385
 1802 Fit      -0.000910
 1803 Fit      -0.001125
 1804 Fit      -0.001266
 1805 Fit      -0.001132
 1806 Fit      -0.001347
 1807 Fit      -0.001595
 1808 Fit      -0.001671
 1809 Fit      -0.001838
 1810 Fit      -0.001494
 1811 Fit      -0.001779
 1812 Fit      -0.002144
 1813 Fit      -0.002430
 1814 Fit      -0.002693
 1815 Fit      -0.002842
 1816 Fit      -0.002605
 1817 Fit      -0.003980
 1818 Fit      -0.004536
 1819 Fit      -0.004806
 1820 Fit      -0.004924
 1821 Fit      -0.004813
 1822 Fit      -0.003755
 1823 Fit      -0.002432
 1824 Fit      -0.006234
 1825 Fit      -0.003915
 1826 Fit      -0.002166
 1827 Fit      -0.001103
 1828 Fit      -0.007522
 1829 Fit      -0.004075
 1830 Fit      -0.001734
 1831 Fit      -0.000320
 1832 Fit      -0.008071
 1833 Fit      -0.003312
 1834 Fit      -0.000450
 1835 Fit      -0.008387
 1836 Fit      -0.008976
 1837 Fit      -0.008441
 1838 Fit      -0.010968
 1839 Fit      -0.014401
 1840 Fit      -0.016140
 1841 Fit      -0.014385
 1842 Fit      -0.011154
 1843 Fit      -0.027598
 1844 Fit      -0.018158
 1845 Fit      -0.001190
 1846 Fit      -0.002598
 1847 Fit      -0.000778
 1848 Fit      -0.002129
 1849 Fit      -0.004211
 1850 Fit       0.000297
 1851 Fit      -0.000218
 1852 Fit      -0.001638
 1853 Fit      -0.004050
 1854 Fit       0.000837
 1855 Fit      -0.003998
 1856 Fit       0.008448
 1857 Fit       0.009278
 1858 Fit       0.009866
 1859 Fit       0.013645
 1860 Fit       0.013945
 1861 Fit       0.015153
 1862 Fit       0.017043
 1863 Fit       0.016823
 1864 Fit       0.018253
 1865 Fit       0.019496
 1866 Fit       0.018411
 1867 Fit       0.017452
 1868 Fit       0.017186
 1869 Fit      -0.012643
 1870 Fit      -0.002755
 1871 Fit      -0.013508
 1872 Fit      -0.027914
 1873 Fit      -0.000542
 1874 Fit      -0.010941
 1875 Fit      -0.002017
 1876 Fit      -0.012492
 1877 Fit      -0.003599
 1878 Fit      -0.011946
 1879 Fit       0.017082
 1880 Fit       0.024487
 1881 Fit       0.029092
 1882 Fit       0.032726
 1883 Fit       0.019680
 1884 Fit       0.027032
 1885 Fit       0.030944
 1886 Fit       0.033071
 1887 Fit       0.034097
 1888 Fit       0.023144
 1889 Fit       0.029024
 1890 Fit       0.031116
 1891 Fit       0.030178
 1892 Fit       0.016379
 1893 Fit       0.025388
 1894 Fit       0.026450
 1895 Fit       0.019669
 1896 Fit       0.014470
 1897 Fit       0.011263
 1898 Fit       0.017979
 1899 Fit       0.009289
 1900 Fit       0.018180
 1901 Fit       0.007857
 1902 Fit       0.019536
 1903 Fit       0.010759
 1904 Fit       0.015112
 1905 Fit       0.010573
 1906 Fit       0.013105
 1907 Fit       0.017900
 1908 Fit       0.015334
 1909 Fit       0.016533
 1910 Fit       0.019858
 1911 Fit       0.018818
 1912 Fit       0.017280
 1913 Fit       0.018387
 1914 Fit       0.020681
 1915 Fit       0.016546
 1916 Fit       0.016774
 1917 Fit       0.016009
 1918 Fit       0.013362
 1919 Fit      -0.028470
 1920 Fit      -0.022492
 1921 Fit      -0.025859
 1922 Fit      -0.020732
 1923 Fit      -0.015702
 1924 Fit      -0.014418
 1925 Fit      -0.017434
 1926 Fit      -0.029941
 1927 Fit      -0.014881
 1928 Fit      -0.011345
 1929 Fit      -0.009239
 1930 Fit      -0.010773
 1931 Fit      -0.028729
 1932 Fit      -0.019994
 1933 Fit      -0.010262
 1934 Fit      -0.007776
 1935 Fit      -0.005072
 1936 Fit      -0.004379
 1937 Fit      -0.023649
 1938 Fit      -0.016465
 1939 Fit      -0.012637
 1940 Fit      -0.005465
 1941 Fit      -0.003415
 1942 Fit       0.000109
 1943 Fit      -0.021927
 1944 Fit      -0.014576
 1945 Fit      -0.009636
 1946 Fit      -0.007264
 1947 Fit      -0.006360
 1948 Fit       0.000416
 1949 Fit       0.003067
 1950 Fit       0.009163
 1951 Fit       0.000905
 1952 Fit       0.000119
 1953 Fit       0.007228
 1954 Fit       0.011094
 1955 Fit       0.007042
 1956 Fit      -0.038505
 1957 Fit      -0.038646
 1958 Fit      -0.034633
 1959 Fit      -0.032579
 1960 Fit      -0.034727
 1961 Fit      -0.039688
 1962 Fit      -0.041265
 1963 Fit      -0.035343
 1964 Fit      -0.039573
 1965 Fit      -0.041470
 1966 Fit      -0.041477
 1967 Fit      -0.039302
 1968 Fit      -0.034642
 1969 Fit      -0.038421
 1970 Fit      -0.039925
 1971 Fit      -0.039690
 1972 Fit      -0.037521
 1973 Fit      -0.030314
 1974 Fit      -0.034377
 1975 Fit      -0.035860
 1976 Fit      -0.035309
 1977 Fit      -0.032767
 1978 Fit      -0.023630
 1979 Fit      -0.027358
 1980 Fit      -0.026795
 1981 Fit      -0.005788
 1982 Fit      -0.002669
 1983 Fit       0.000263
 1984 Fit       0.002782
 1985 Fit       0.008571
 1986 Fit       0.000517
 1987 Fit       0.001580
 1988 Fit       0.003468
 1989 Fit       0.005292
 1990 Fit       0.006866
 1991 Fit       0.010406
 1992 Fit       0.005648
 1993 Fit       0.007145
 1994 Fit       0.008608
 1995 Fit       0.008821
 1996 Fit      -0.011403
 1997 Fit      -0.020935
 1998 Fit      -0.001433
 1999 Fit      -0.003082
 2000 Fit      -0.006663
 2001 Fit       0.000607
 2002 Fit       0.002423
 2003 Fit       0.001948
 2004 Fit       0.000348
 2005 Fit       0.004039
 2006 Fit       0.004572
 2007 Fit       0.004714
 2008 Fit       0.004040
 2009 Fit       0.006592
 2010 Fit      -0.009831
 2011 Fit       0.011856
 2012 Fit       0.003745
 2013 Fit       0.003564
 2014 Fit       0.007247
 2015 Fit       0.006638
 2016 Fit       0.005941
 2017 Fit       0.006950
 2018 Fit       0.008733
 2019 Fit       0.008092
 2020 Fit       0.009701
 2021 Fit       0.013894
 2022 Fit       0.018279
 2023 Fit       0.014182
 2024 Fit       0.017103
 2025 Fit       0.018478
 2026 Fit       0.014796
 2027 Fit       0.009868
 2028 Fit       0.008182
 2029 Fit       0.013643
 2030 Fit       0.014939
 2031 Fit       0.012669
 2032 Fit       0.010408
 2033 Fit       0.011593
 2034 Fit       0.012361
 -----------------------------------------------------------------
 Leave Link  602 at Thu Jan 30 17:48:21 2025, MaxMem=   104857600 cpu:               0.3 elap:               0.3
 (Enter /home/pb777/GAUSSIAN/g16/l9999.exe)

 Test job not archived.
 1\1\GINC-BUMBU\SP\RHF\6-31G(d)\C19H23N5O2S1\PB777\30-Jan-2025\0\\#P HF
 /6-31G* GEOM(AllCheck) Guess(Read) NoSymm Pop=mk IOp(6/33=2) GFInput G
 FPrint\\Gaussian Calculation\\0,1\C,0,1.58301387,28.942957986,6.973727
 2271\C,0,-1.657512247,31.6471488776,8.0159155066\C,0,-0.323816161,26.3
 548618813,9.3844637104\C,0,-1.2399554137,25.6378054267,10.3570099742\C
 ,0,-0.791321904,24.1828663637,10.5238540751\C,0,-1.6855154049,23.42906
 89388,11.5073731651\C,0,-1.7537742965,24.1388231983,12.8583278586\C,0,
 -2.1997829481,25.5907550811,12.696482601\C,0,-1.3043483229,26.34321558
 85,11.7140939624\C,0,5.4368901621,26.1822532235,5.5818194558\C,0,5.051
 2011783,25.0515060756,6.2984239842\C,0,3.899155039,25.0755660146,7.072
 7706965\C,0,3.1017032001,26.2125802953,7.1203763875\N,0,0.9343360596,2
 8.0838888893,7.7787132318\C,0,-0.1859850887,28.4852928554,8.3665508893
 \O,0,-0.8532315739,27.6676665721,9.167073652\C,0,-0.6760899785,29.7820
 048699,8.1444824629\N,0,-1.7753795244,30.484542414,8.5910807493\N,0,-0
 .5427423,31.756890492,7.212880142\C,0,0.1097122282,30.5572908284,7.281
 6408561\N,0,1.2353855893,30.199956287,6.6723440355\N,0,2.7447716496,28
 .5383548982,6.3604741528\C,0,3.4651955949,27.3508307375,6.3860436099\C
 ,0,4.644510673,27.3171262399,5.6195036512\H,0,-2.3481826022,32.4725277
 229,8.1330040536\H,0,-0.2662019689,25.8286344597,8.4239009805\H,0,0.69
 43796668,26.4390049431,9.7851543943\H,0,-2.2506772698,25.638317905,9.9
 20236555\H,0,0.2457431979,24.1666544333,10.8930681559\H,0,-0.784674871
 9,23.6738834624,9.5507470277\H,0,-1.3220086058,22.4016925833,11.631944
 8881\H,0,-2.6989756464,23.3537811491,11.08672214\H,0,-0.7592993347,24.
 116592584,13.328140034\H,0,-2.4310137197,23.6029699293,13.5349749732\H
 ,0,-2.2031969012,26.1005473395,13.667776925\H,0,-3.2365373767,25.61277
 63454,12.3296447741\H,0,-1.6551309354,27.3724110666,11.5802287899\H,0,
 -0.2849728073,26.4060178425,12.1266798818\H,0,6.3539352683,26.18554122
 11,4.9961501954\H,0,3.6438890259,24.1880253777,7.6468756176\H,0,2.2028
 512147,26.236525932,7.7204862665\H,0,-0.2498578713,32.5576076445,6.674
 7543249\H,0,3.1314922327,29.27624604,5.7888502935\H,0,4.9425794054,28.
 199721217,5.0569943203\S,0,6.064754559,23.5627435637,6.3174004797\O,0,
 5.4661639051,22.6316603296,7.3373646784\H,0,6.0735410654,22.0011610009
 ,4.5131463685\H,0,4.4731738704,22.7866794064,4.6909625169\C,0,5.554519
 3965,22.948220983,4.6842064321\H,0,5.8312870228,23.6718014832,3.912158
 8956\\Version=ES64L-G16RevA.03\HF=-1552.3505397\RMSD=6.446e-09\Dipole=
 -0.1724668,1.9857716,-1.6112656\Quadrupole=-59.9486187,155.3272246,-95
 .3786059,2.782815,-17.1646183,-54.0980813\PG=C01 [X(C19H23N5O2S1)]\\@


 Sacred cows make the best hamburger.
                               -- Mark Twain
 Job cpu time:       0 days  0 hours  2 minutes 13.7 seconds.
 Elapsed time:       0 days  0 hours  2 minutes 14.2 seconds.
 File lengths (MBytes):  RWF=    111 Int=      0 D2E=      0 Chk=     19 Scr=      1
 Normal termination of Gaussian 16 at Thu Jan 30 17:48:21 2025.
