 Entering Gaussian System, Link 0=/home/pb777/GAUSSIAN/g16/g16
 Initial command:
 /home/pb777/GAUSSIAN/g16/l1.exe "/home/pb777/GAUSSIAN/g16/scratch/Gau-1062898.inp" -scrdir="/home/pb777/GAUSSIAN/g16/scratch/"
 Entering Link 1 = /home/pb777/GAUSSIAN/g16/l1.exe PID=   1062899.
  
 Copyright (c) 1988,1990,1992,1993,1995,1998,2003,2009,2016,
            Gaussian, Inc.  All Rights Reserved.
  
 This is part of the Gaussian(R) 16 program.  It is based on
 the Gaussian(R) 09 system (copyright 2009, Gaussian, Inc.),
 the Gaussian(R) 03 system (copyright 2003, Gaussian, Inc.),
 the Gaussian(R) 98 system (copyright 1998, Gaussian, Inc.),
 the Gaussian(R) 94 system (copyright 1995, Gaussian, Inc.),
 the Gaussian 92(TM) system (copyright 1992, Gaussian, Inc.),
 the Gaussian 90(TM) system (copyright 1990, Gaussian, Inc.),
 the Gaussian 88(TM) system (copyright 1988, Gaussian, Inc.),
 the Gaussian 86(TM) system (copyright 1986, Carnegie Mellon
 University), and the Gaussian 82(TM) system (copyright 1983,
 Carnegie Mellon University). Gaussian is a federally registered
 trademark of Gaussian, Inc.
  
 This software contains proprietary and confidential information,
 including trade secrets, belonging to Gaussian, Inc.
  
 This software is provided under written license and may be
 used, copied, transmitted, or stored only in accord with that
 written license.
  
 The following legend is applicable only to US Government
 contracts under FAR:
  
                    RESTRICTED RIGHTS LEGEND
  
 Use, reproduction and disclosure by the US Government is
 subject to restrictions as set forth in subparagraphs (a)
 and (c) of the Commercial Computer Software - Restricted
 Rights clause in FAR 52.227-19.
  
 Gaussian, Inc.
 340 Quinnipiac St., Bldg. 40, Wallingford CT 06492
  
  
 ---------------------------------------------------------------
 Warning -- This program may not be used in any manner that
 competes with the business of Gaussian, Inc. or will provide
 assistance to any competitor of Gaussian, Inc.  The licensee
 of this program is prohibited from giving any competitor of
 Gaussian, Inc. access to this program.  By using this program,
 the user acknowledges that Gaussian, Inc. is engaged in the
 business of creating and licensing software in the field of
 computational chemistry and represents and warrants to the
 licensee that it is not a competitor of Gaussian, Inc. and that
 it will not use this program in any manner prohibited above.
 ---------------------------------------------------------------
  

 Cite this work as:
 Gaussian 16, Revision A.03,
 M. J. Frisch, G. W. Trucks, H. B. Schlegel, G. E. Scuseria, 
 M. A. Robb, J. R. Cheeseman, G. Scalmani, V. Barone, 
 G. A. Petersson, H. Nakatsuji, X. Li, M. Caricato, A. V. Marenich, 
 J. Bloino, B. G. Janesko, R. Gomperts, B. Mennucci, H. P. Hratchian, 
 J. V. Ortiz, A. F. Izmaylov, J. L. Sonnenberg, D. Williams-Young, 
 F. Ding, F. Lipparini, F. Egidi, J. Goings, B. Peng, A. Petrone, 
 T. Henderson, D. Ranasinghe, V. G. Zakrzewski, J. Gao, N. Rega, 
 G. Zheng, W. Liang, M. Hada, M. Ehara, K. Toyota, R. Fukuda, 
 J. Hasegawa, M. Ishida, T. Nakajima, Y. Honda, O. Kitao, H. Nakai, 
 T. Vreven, K. Throssell, J. A. Montgomery, Jr., J. E. Peralta, 
 F. Ogliaro, M. J. Bearpark, J. J. Heyd, E. N. Brothers, K. N. Kudin, 
 V. N. Staroverov, T. A. Keith, R. Kobayashi, J. Normand, 
 K. Raghavachari, A. P. Rendell, J. C. Burant, S. S. Iyengar, 
 J. Tomasi, M. Cossi, J. M. Millam, M. Klene, C. Adamo, R. Cammi, 
 J. W. Ochterski, R. L. Martin, K. Morokuma, O. Farkas, 
 J. B. Foresman, and D. J. Fox, Gaussian, Inc., Wallingford CT, 2016.
 
 ******************************************
 Gaussian 16:  ES64L-G16RevA.03 25-Dec-2016
                30-Jan-2025 
 ******************************************
 %NPROC=1', f'%MEM=512MB
 Will use up to    1 processors via shared memory.
 %chk=binder_32.antechamber.chk
 ------------------------
 #P HF/6-31G* OPT(CalcFC)
 ------------------------
 1/10=4,18=20,19=15,38=1/1,3;
 2/9=110,12=2,17=6,18=5,40=1/2;
 3/5=1,6=6,7=1,11=9,25=1,30=1,71=2,140=1/1,2,3;
 4//1;
 5/5=2,38=5/2;
 8/6=4,10=90,11=11/1;
 11/6=1,8=1,9=11,15=111,16=1/1,2,10;
 10/6=1,13=1/2;
 6/7=2,8=2,9=2,10=2,28=1/1;
 7/10=1,18=20,25=1/1,2,3,16;
 1/10=4,18=20,19=15/3(2);
 2/9=110/2;
 99//99;
 2/9=110/2;
 3/5=1,6=6,7=1,11=9,25=1,30=1,71=1/1,2,3;
 4/5=5,16=3,69=1/1;
 5/5=2,38=5/2;
 7//1,2,3,16;
 1/18=20,19=15/3(-5);
 2/9=110/2;
 6/7=2,8=2,9=2,10=2,19=2,28=1/1;
 99/9=1/99;
 Leave Link    1 at Thu Jan 30 14:40:10 2025, MaxMem=           0 cpu:               0.0 elap:               0.0
 (Enter /home/pb777/GAUSSIAN/g16/l101.exe)
 --------------------
 Gaussian Calculation
 --------------------
 Symbolic Z-matrix:
 Charge =  0 Multiplicity = 1
 C                     1.422     29.034    6.768 
 C                    -1.45      32.163    8.008 
 C                    -0.582     26.625    8.978 
 C                    -1.25      25.767    10.081 
 C                    -1.355     24.331    9.527 
 C                    -1.653     23.273    10.603 
 C                    -0.781     23.343    11.865 
 C                    -0.712     24.779    12.432 
 C                    -0.388     25.86     11.38 
 C                     4.575     25.659    5.724 
 C                     4.541     25.134    7.025 
 C                     3.957     25.866    8.059 
 C                     3.329     27.075    7.778 
 N                     0.488     28.18     7.498 
 C                    -0.568     28.637    8.086 
 O                    -1.389     27.808    8.752 
 C                    -0.837     30.059    7.987 
 N                    -1.806     31.022    8.425 
 N                    -0.337     32.096    7.318 
 C                     0.012     30.844    7.311 
 N                     1.172     30.278    6.709 
 N                     2.523     28.721    6.157 
 C                     3.267     27.574    6.473 
 C                     3.936     26.885    5.468 
 H                    -1.974     33.085    8.159 
 H                    -0.541     26.054    8.043 
 H                     0.454     26.776    9.311 
 H                    -2.258     26.125    10.296 
 H                    -0.41      24.042    9.063 
 H                    -2.106     24.282    8.736 
 H                    -1.609     22.271    10.176 
 H                    -2.684     23.422    10.916 
 H                     0.23      23.014    11.618 
 H                    -1.152     22.652    12.623 
 H                    -0.027     24.811    13.272 
 H                    -1.687     25.018    12.862 
 H                    -0.474     26.853    11.824 
 H                     0.671     25.729    11.148 
 H                     2.836     27.604    8.577 
 H                     0.089     32.895    6.844 
 H                     3.001     29.477    5.687 
 H                     3.92      27.308    4.479 
 S                     5.247     23.533    7.391 
 O                     6.594     23.748    7.916 
 O                     5.02      22.643    6.25 
 H                     3.336     22.893    8.474 
 N                     4.333     22.852    8.671 
 H                     4.549     23.287    9.596 
 O                     3.953     25.395    9.339 
 C                     3.292     26.37     10.114 
 H                     3.257     26.038    11.181 
 H                     3.845     27.34     10.043 
 H                     2.249     26.506    9.731 
 H                     5.086     25.123    4.938 
 
 ITRead=  0  0  0  0  0  0  0  0  0  0  0  0  0  0  0  0  0  0  0  0
 ITRead=  0  0  0  0  0  0  0  0  0  0  0  0  0  0  0  0  0  0  0  0
 ITRead=  0  0  0  0  0  0  0  0  0  0  0  0  0  0
 MicOpt= -1 -1 -1 -1 -1 -1 -1 -1 -1 -1 -1 -1 -1 -1 -1 -1 -1 -1 -1 -1
 MicOpt= -1 -1 -1 -1 -1 -1 -1 -1 -1 -1 -1 -1 -1 -1 -1 -1 -1 -1 -1 -1
 MicOpt= -1 -1 -1 -1 -1 -1 -1 -1 -1 -1 -1 -1 -1 -1
 NAtoms=     54 NQM=       54 NQMF=       0 NMMI=      0 NMMIF=      0
                NMic=       0 NMicF=      0.
                    Isotopes and Nuclear Properties:
 (Nuclear quadrupole moments (NQMom) in fm**2, nuclear magnetic moments (NMagM)
  in nuclear magnetons)

  Atom         1           2           3           4           5           6           7           8           9          10
 IAtWgt=          12          12          12          12          12          12          12          12          12          12
 AtmWgt=  12.0000000  12.0000000  12.0000000  12.0000000  12.0000000  12.0000000  12.0000000  12.0000000  12.0000000  12.0000000
 NucSpn=           0           0           0           0           0           0           0           0           0           0
 AtZEff=  -0.0000000  -0.0000000  -0.0000000  -0.0000000  -0.0000000  -0.0000000  -0.0000000  -0.0000000  -0.0000000  -0.0000000
 NQMom=    0.0000000   0.0000000   0.0000000   0.0000000   0.0000000   0.0000000   0.0000000   0.0000000   0.0000000   0.0000000
 NMagM=    0.0000000   0.0000000   0.0000000   0.0000000   0.0000000   0.0000000   0.0000000   0.0000000   0.0000000   0.0000000
 AtZNuc=   6.0000000   6.0000000   6.0000000   6.0000000   6.0000000   6.0000000   6.0000000   6.0000000   6.0000000   6.0000000

  Atom        11          12          13          14          15          16          17          18          19          20
 IAtWgt=          12          12          12          14          12          16          12          14          14          12
 AtmWgt=  12.0000000  12.0000000  12.0000000  14.0030740  12.0000000  15.9949146  12.0000000  14.0030740  14.0030740  12.0000000
 NucSpn=           0           0           0           2           0           0           0           2           2           0
 AtZEff=  -0.0000000  -0.0000000  -0.0000000  -0.0000000  -0.0000000  -0.0000000  -0.0000000  -0.0000000  -0.0000000  -0.0000000
 NQMom=    0.0000000   0.0000000   0.0000000   2.0440000   0.0000000   0.0000000   0.0000000   2.0440000   2.0440000   0.0000000
 NMagM=    0.0000000   0.0000000   0.0000000   0.4037610   0.0000000   0.0000000   0.0000000   0.4037610   0.4037610   0.0000000
 AtZNuc=   6.0000000   6.0000000   6.0000000   7.0000000   6.0000000   8.0000000   6.0000000   7.0000000   7.0000000   6.0000000

  Atom        21          22          23          24          25          26          27          28          29          30
 IAtWgt=          14          14          12          12           1           1           1           1           1           1
 AtmWgt=  14.0030740  14.0030740  12.0000000  12.0000000   1.0078250   1.0078250   1.0078250   1.0078250   1.0078250   1.0078250
 NucSpn=           2           2           0           0           1           1           1           1           1           1
 AtZEff=  -0.0000000  -0.0000000  -0.0000000  -0.0000000  -0.0000000  -0.0000000  -0.0000000  -0.0000000  -0.0000000  -0.0000000
 NQMom=    2.0440000   2.0440000   0.0000000   0.0000000   0.0000000   0.0000000   0.0000000   0.0000000   0.0000000   0.0000000
 NMagM=    0.4037610   0.4037610   0.0000000   0.0000000   2.7928460   2.7928460   2.7928460   2.7928460   2.7928460   2.7928460
 AtZNuc=   7.0000000   7.0000000   6.0000000   6.0000000   1.0000000   1.0000000   1.0000000   1.0000000   1.0000000   1.0000000

  Atom        31          32          33          34          35          36          37          38          39          40
 IAtWgt=           1           1           1           1           1           1           1           1           1           1
 AtmWgt=   1.0078250   1.0078250   1.0078250   1.0078250   1.0078250   1.0078250   1.0078250   1.0078250   1.0078250   1.0078250
 NucSpn=           1           1           1           1           1           1           1           1           1           1
 AtZEff=  -0.0000000  -0.0000000  -0.0000000  -0.0000000  -0.0000000  -0.0000000  -0.0000000  -0.0000000  -0.0000000  -0.0000000
 NQMom=    0.0000000   0.0000000   0.0000000   0.0000000   0.0000000   0.0000000   0.0000000   0.0000000   0.0000000   0.0000000
 NMagM=    2.7928460   2.7928460   2.7928460   2.7928460   2.7928460   2.7928460   2.7928460   2.7928460   2.7928460   2.7928460
 AtZNuc=   1.0000000   1.0000000   1.0000000   1.0000000   1.0000000   1.0000000   1.0000000   1.0000000   1.0000000   1.0000000

  Atom        41          42          43          44          45          46          47          48          49          50
 IAtWgt=           1           1          32          16          16           1          14           1          16          12
 AtmWgt=   1.0078250   1.0078250  31.9720718  15.9949146  15.9949146   1.0078250  14.0030740   1.0078250  15.9949146  12.0000000
 NucSpn=           1           1           0           0           0           1           2           1           0           0
 AtZEff=  -0.0000000  -0.0000000  -0.0000000  -0.0000000  -0.0000000  -0.0000000  -0.0000000  -0.0000000  -0.0000000  -0.0000000
 NQMom=    0.0000000   0.0000000   0.0000000   0.0000000   0.0000000   0.0000000   2.0440000   0.0000000   0.0000000   0.0000000
 NMagM=    2.7928460   2.7928460   0.0000000   0.0000000   0.0000000   2.7928460   0.4037610   2.7928460   0.0000000   0.0000000
 AtZNuc=   1.0000000   1.0000000  16.0000000   8.0000000   8.0000000   1.0000000   7.0000000   1.0000000   8.0000000   6.0000000

  Atom        51          52          53          54
 IAtWgt=           1           1           1           1
 AtmWgt=   1.0078250   1.0078250   1.0078250   1.0078250
 NucSpn=           1           1           1           1
 AtZEff=  -0.0000000  -0.0000000  -0.0000000  -0.0000000
 NQMom=    0.0000000   0.0000000   0.0000000   0.0000000
 NMagM=    2.7928460   2.7928460   2.7928460   2.7928460
 AtZNuc=   1.0000000   1.0000000   1.0000000   1.0000000
 Leave Link  101 at Thu Jan 30 14:40:10 2025, MaxMem=   104857600 cpu:               0.1 elap:               0.1
 (Enter /home/pb777/GAUSSIAN/g16/l103.exe)

 GradGradGradGradGradGradGradGradGradGradGradGradGradGradGradGradGradGrad
 Berny optimization.
 Initialization pass.
                           ----------------------------
                           !    Initial Parameters    !
                           ! (Angstroms and Degrees)  !
 --------------------------                            --------------------------
 ! Name  Definition              Value          Derivative Info.                !
 --------------------------------------------------------------------------------
 ! R1    R(1,14)                 1.461          calculate D2E/DX2 analytically  !
 ! R2    R(1,21)                 1.2702         calculate D2E/DX2 analytically  !
 ! R3    R(1,22)                 1.2975         calculate D2E/DX2 analytically  !
 ! R4    R(2,18)                 1.2659         calculate D2E/DX2 analytically  !
 ! R5    R(2,19)                 1.3112         calculate D2E/DX2 analytically  !
 ! R6    R(2,25)                 1.0712         calculate D2E/DX2 analytically  !
 ! R7    R(3,4)                  1.5489         calculate D2E/DX2 analytically  !
 ! R8    R(3,16)                 1.4498         calculate D2E/DX2 analytically  !
 ! R9    R(3,26)                 1.0963         calculate D2E/DX2 analytically  !
 ! R10   R(3,27)                 1.0986         calculate D2E/DX2 analytically  !
 ! R11   R(4,5)                  1.5427         calculate D2E/DX2 analytically  !
 ! R12   R(4,9)                  1.5618         calculate D2E/DX2 analytically  !
 ! R13   R(4,28)                 1.0911         calculate D2E/DX2 analytically  !
 ! R14   R(5,6)                  1.5382         calculate D2E/DX2 analytically  !
 ! R15   R(5,29)                 1.0917         calculate D2E/DX2 analytically  !
 ! R16   R(5,30)                 1.0918         calculate D2E/DX2 analytically  !
 ! R17   R(6,7)                  1.5356         calculate D2E/DX2 analytically  !
 ! R18   R(6,31)                 1.0901         calculate D2E/DX2 analytically  !
 ! R19   R(6,32)                 1.0877         calculate D2E/DX2 analytically  !
 ! R20   R(7,8)                  1.5454         calculate D2E/DX2 analytically  !
 ! R21   R(7,33)                 1.0915         calculate D2E/DX2 analytically  !
 ! R22   R(7,34)                 1.0907         calculate D2E/DX2 analytically  !
 ! R23   R(8,9)                  1.5428         calculate D2E/DX2 analytically  !
 ! R24   R(8,35)                 1.0844         calculate D2E/DX2 analytically  !
 ! R25   R(8,36)                 1.0921         calculate D2E/DX2 analytically  !
 ! R26   R(9,37)                 1.0911         calculate D2E/DX2 analytically  !
 ! R27   R(9,38)                 1.092          calculate D2E/DX2 analytically  !
 ! R28   R(10,11)                1.4033         calculate D2E/DX2 analytically  !
 ! R29   R(10,24)                1.406          calculate D2E/DX2 analytically  !
 ! R30   R(10,54)                1.0799         calculate D2E/DX2 analytically  !
 ! R31   R(11,12)                1.395          calculate D2E/DX2 analytically  !
 ! R32   R(11,43)                1.7876         calculate D2E/DX2 analytically  !
 ! R33   R(12,13)                1.3911         calculate D2E/DX2 analytically  !
 ! R34   R(12,49)                1.3639         calculate D2E/DX2 analytically  !
 ! R35   R(13,23)                1.3985         calculate D2E/DX2 analytically  !
 ! R36   R(13,39)                1.0776         calculate D2E/DX2 analytically  !
 ! R37   R(14,15)                1.2922         calculate D2E/DX2 analytically  !
 ! R38   R(15,16)                1.3434         calculate D2E/DX2 analytically  !
 ! R39   R(15,17)                1.4506         calculate D2E/DX2 analytically  !
 ! R40   R(17,18)                1.4346         calculate D2E/DX2 analytically  !
 ! R41   R(17,20)                1.3394         calculate D2E/DX2 analytically  !
 ! R42   R(19,20)                1.2998         calculate D2E/DX2 analytically  !
 ! R43   R(19,40)                1.022          calculate D2E/DX2 analytically  !
 ! R44   R(20,21)                1.4242         calculate D2E/DX2 analytically  !
 ! R45   R(22,23)                1.4032         calculate D2E/DX2 analytically  !
 ! R46   R(22,41)                1.0104         calculate D2E/DX2 analytically  !
 ! R47   R(23,24)                1.3901         calculate D2E/DX2 analytically  !
 ! R48   R(24,42)                1.0758         calculate D2E/DX2 analytically  !
 ! R49   R(43,44)                1.4616         calculate D2E/DX2 analytically  !
 ! R50   R(43,45)                1.4648         calculate D2E/DX2 analytically  !
 ! R51   R(43,47)                1.7139         calculate D2E/DX2 analytically  !
 ! R52   R(46,47)                1.0171         calculate D2E/DX2 analytically  !
 ! R53   R(47,48)                1.0448         calculate D2E/DX2 analytically  !
 ! R54   R(49,50)                1.41           calculate D2E/DX2 analytically  !
 ! R55   R(50,51)                1.118          calculate D2E/DX2 analytically  !
 ! R56   R(50,52)                1.1188         calculate D2E/DX2 analytically  !
 ! R57   R(50,53)                1.1194         calculate D2E/DX2 analytically  !
 ! A1    A(14,1,21)            118.0237         calculate D2E/DX2 analytically  !
 ! A2    A(14,1,22)            129.5499         calculate D2E/DX2 analytically  !
 ! A3    A(21,1,22)            112.4195         calculate D2E/DX2 analytically  !
 ! A4    A(18,2,19)            111.4686         calculate D2E/DX2 analytically  !
 ! A5    A(18,2,25)            126.2845         calculate D2E/DX2 analytically  !
 ! A6    A(19,2,25)            122.2337         calculate D2E/DX2 analytically  !
 ! A7    A(4,3,16)             108.8423         calculate D2E/DX2 analytically  !
 ! A8    A(4,3,26)             109.5696         calculate D2E/DX2 analytically  !
 ! A9    A(4,3,27)             105.4848         calculate D2E/DX2 analytically  !
 ! A10   A(16,3,26)            108.2318         calculate D2E/DX2 analytically  !
 ! A11   A(16,3,27)            117.3875         calculate D2E/DX2 analytically  !
 ! A12   A(26,3,27)            107.1467         calculate D2E/DX2 analytically  !
 ! A13   A(3,4,5)              106.8132         calculate D2E/DX2 analytically  !
 ! A14   A(3,4,9)              108.7409         calculate D2E/DX2 analytically  !
 ! A15   A(3,4,28)             110.9167         calculate D2E/DX2 analytically  !
 ! A16   A(5,4,9)              113.059          calculate D2E/DX2 analytically  !
 ! A17   A(5,4,28)             108.2581         calculate D2E/DX2 analytically  !
 ! A18   A(9,4,28)             109.0551         calculate D2E/DX2 analytically  !
 ! A19   A(4,5,6)              113.7174         calculate D2E/DX2 analytically  !
 ! A20   A(4,5,29)             109.884          calculate D2E/DX2 analytically  !
 ! A21   A(4,5,30)             110.4108         calculate D2E/DX2 analytically  !
 ! A22   A(6,5,29)             106.4354         calculate D2E/DX2 analytically  !
 ! A23   A(6,5,30)             110.0394         calculate D2E/DX2 analytically  !
 ! A24   A(29,5,30)            105.998          calculate D2E/DX2 analytically  !
 ! A25   A(5,6,7)              115.6925         calculate D2E/DX2 analytically  !
 ! A26   A(5,6,31)             110.5129         calculate D2E/DX2 analytically  !
 ! A27   A(5,6,32)             106.9005         calculate D2E/DX2 analytically  !
 ! A28   A(7,6,31)             109.9325         calculate D2E/DX2 analytically  !
 ! A29   A(7,6,32)             107.1888         calculate D2E/DX2 analytically  !
 ! A30   A(31,6,32)            106.0749         calculate D2E/DX2 analytically  !
 ! A31   A(6,7,8)              111.6688         calculate D2E/DX2 analytically  !
 ! A32   A(6,7,33)             109.0426         calculate D2E/DX2 analytically  !
 ! A33   A(6,7,34)             110.4329         calculate D2E/DX2 analytically  !
 ! A34   A(8,7,33)             108.7686         calculate D2E/DX2 analytically  !
 ! A35   A(8,7,34)             110.4189         calculate D2E/DX2 analytically  !
 ! A36   A(33,7,34)            106.3414         calculate D2E/DX2 analytically  !
 ! A37   A(7,8,9)              114.2214         calculate D2E/DX2 analytically  !
 ! A38   A(7,8,35)             109.8668         calculate D2E/DX2 analytically  !
 ! A39   A(7,8,36)             107.9358         calculate D2E/DX2 analytically  !
 ! A40   A(9,8,35)             112.0164         calculate D2E/DX2 analytically  !
 ! A41   A(9,8,36)             107.616          calculate D2E/DX2 analytically  !
 ! A42   A(35,8,36)            104.6261         calculate D2E/DX2 analytically  !
 ! A43   A(4,9,8)              114.1745         calculate D2E/DX2 analytically  !
 ! A44   A(4,9,37)             110.4349         calculate D2E/DX2 analytically  !
 ! A45   A(4,9,38)             110.5735         calculate D2E/DX2 analytically  !
 ! A46   A(8,9,37)             110.0986         calculate D2E/DX2 analytically  !
 ! A47   A(8,9,38)             105.3356         calculate D2E/DX2 analytically  !
 ! A48   A(37,9,38)            105.7868         calculate D2E/DX2 analytically  !
 ! A49   A(11,10,24)           118.9461         calculate D2E/DX2 analytically  !
 ! A50   A(11,10,54)           120.0355         calculate D2E/DX2 analytically  !
 ! A51   A(24,10,54)           121.0184         calculate D2E/DX2 analytically  !
 ! A52   A(10,11,12)           120.066          calculate D2E/DX2 analytically  !
 ! A53   A(10,11,43)           121.0169         calculate D2E/DX2 analytically  !
 ! A54   A(12,11,43)           118.916          calculate D2E/DX2 analytically  !
 ! A55   A(11,12,13)           119.6911         calculate D2E/DX2 analytically  !
 ! A56   A(11,12,49)           121.0401         calculate D2E/DX2 analytically  !
 ! A57   A(13,12,49)           119.2347         calculate D2E/DX2 analytically  !
 ! A58   A(12,13,23)           121.2397         calculate D2E/DX2 analytically  !
 ! A59   A(12,13,39)           118.9081         calculate D2E/DX2 analytically  !
 ! A60   A(23,13,39)           119.7637         calculate D2E/DX2 analytically  !
 ! A61   A(1,14,15)            122.8931         calculate D2E/DX2 analytically  !
 ! A62   A(14,15,16)           120.4487         calculate D2E/DX2 analytically  !
 ! A63   A(14,15,17)           117.8516         calculate D2E/DX2 analytically  !
 ! A64   A(16,15,17)           121.696          calculate D2E/DX2 analytically  !
 ! A65   A(3,16,15)            103.9239         calculate D2E/DX2 analytically  !
 ! A66   A(15,17,18)           139.6791         calculate D2E/DX2 analytically  !
 ! A67   A(15,17,20)           119.4344         calculate D2E/DX2 analytically  !
 ! A68   A(18,17,20)           100.8835         calculate D2E/DX2 analytically  !
 ! A69   A(2,18,17)            108.3309         calculate D2E/DX2 analytically  !
 ! A70   A(2,19,20)            106.2584         calculate D2E/DX2 analytically  !
 ! A71   A(2,19,40)            123.9109         calculate D2E/DX2 analytically  !
 ! A72   A(20,19,40)           129.6901         calculate D2E/DX2 analytically  !
 ! A73   A(17,20,19)           113.056          calculate D2E/DX2 analytically  !
 ! A74   A(17,20,21)           119.7814         calculate D2E/DX2 analytically  !
 ! A75   A(19,20,21)           127.1419         calculate D2E/DX2 analytically  !
 ! A76   A(1,21,20)            121.9969         calculate D2E/DX2 analytically  !
 ! A77   A(1,22,23)            122.7556         calculate D2E/DX2 analytically  !
 ! A78   A(1,22,41)            116.103          calculate D2E/DX2 analytically  !
 ! A79   A(23,22,41)           117.7439         calculate D2E/DX2 analytically  !
 ! A80   A(13,23,22)           121.6884         calculate D2E/DX2 analytically  !
 ! A81   A(13,23,24)           118.4535         calculate D2E/DX2 analytically  !
 ! A82   A(22,23,24)           119.8358         calculate D2E/DX2 analytically  !
 ! A83   A(10,24,23)           121.2838         calculate D2E/DX2 analytically  !
 ! A84   A(10,24,42)           121.1312         calculate D2E/DX2 analytically  !
 ! A85   A(23,24,42)           117.5556         calculate D2E/DX2 analytically  !
 ! A86   A(11,43,44)           107.8047         calculate D2E/DX2 analytically  !
 ! A87   A(11,43,45)           108.8738         calculate D2E/DX2 analytically  !
 ! A88   A(11,43,47)           107.3463         calculate D2E/DX2 analytically  !
 ! A89   A(44,43,45)           120.7976         calculate D2E/DX2 analytically  !
 ! A90   A(44,43,47)           106.3592         calculate D2E/DX2 analytically  !
 ! A91   A(45,43,47)           104.9327         calculate D2E/DX2 analytically  !
 ! A92   A(43,47,46)           111.2274         calculate D2E/DX2 analytically  !
 ! A93   A(43,47,48)           112.6766         calculate D2E/DX2 analytically  !
 ! A94   A(46,47,48)           110.9384         calculate D2E/DX2 analytically  !
 ! A95   A(12,49,50)           106.1652         calculate D2E/DX2 analytically  !
 ! A96   A(49,50,51)           109.5054         calculate D2E/DX2 analytically  !
 ! A97   A(49,50,52)           109.4458         calculate D2E/DX2 analytically  !
 ! A98   A(49,50,53)           109.4356         calculate D2E/DX2 analytically  !
 ! A99   A(51,50,52)           109.4811         calculate D2E/DX2 analytically  !
 ! A100  A(51,50,53)           109.4783         calculate D2E/DX2 analytically  !
 ! A101  A(52,50,53)           109.481          calculate D2E/DX2 analytically  !
 ! D1    D(21,1,14,15)          -0.3723         calculate D2E/DX2 analytically  !
 ! D2    D(22,1,14,15)         178.5919         calculate D2E/DX2 analytically  !
 ! D3    D(14,1,21,20)          -0.941          calculate D2E/DX2 analytically  !
 ! D4    D(22,1,21,20)         179.9229         calculate D2E/DX2 analytically  !
 ! D5    D(14,1,22,23)         -23.2319         calculate D2E/DX2 analytically  !
 ! D6    D(14,1,22,41)         178.0775         calculate D2E/DX2 analytically  !
 ! D7    D(21,1,22,23)         155.7791         calculate D2E/DX2 analytically  !
 ! D8    D(21,1,22,41)          -2.9116         calculate D2E/DX2 analytically  !
 ! D9    D(19,2,18,17)           0.3509         calculate D2E/DX2 analytically  !
 ! D10   D(25,2,18,17)         179.0458         calculate D2E/DX2 analytically  !
 ! D11   D(18,2,19,20)          -0.0571         calculate D2E/DX2 analytically  !
 ! D12   D(18,2,19,40)         175.9999         calculate D2E/DX2 analytically  !
 ! D13   D(25,2,19,20)        -178.8134         calculate D2E/DX2 analytically  !
 ! D14   D(25,2,19,40)          -2.7565         calculate D2E/DX2 analytically  !
 ! D15   D(16,3,4,5)           129.1727         calculate D2E/DX2 analytically  !
 ! D16   D(16,3,4,9)          -108.5107         calculate D2E/DX2 analytically  !
 ! D17   D(16,3,4,28)           11.4065         calculate D2E/DX2 analytically  !
 ! D18   D(26,3,4,5)            10.9985         calculate D2E/DX2 analytically  !
 ! D19   D(26,3,4,9)           133.3151         calculate D2E/DX2 analytically  !
 ! D20   D(26,3,4,28)         -106.7678         calculate D2E/DX2 analytically  !
 ! D21   D(27,3,4,5)          -104.036          calculate D2E/DX2 analytically  !
 ! D22   D(27,3,4,9)            18.2806         calculate D2E/DX2 analytically  !
 ! D23   D(27,3,4,28)          138.1978         calculate D2E/DX2 analytically  !
 ! D24   D(4,3,16,15)          163.4859         calculate D2E/DX2 analytically  !
 ! D25   D(26,3,16,15)         -77.4995         calculate D2E/DX2 analytically  !
 ! D26   D(27,3,16,15)          43.8488         calculate D2E/DX2 analytically  !
 ! D27   D(3,4,5,6)            164.9645         calculate D2E/DX2 analytically  !
 ! D28   D(3,4,5,29)            45.7865         calculate D2E/DX2 analytically  !
 ! D29   D(3,4,5,30)           -70.7837         calculate D2E/DX2 analytically  !
 ! D30   D(9,4,5,6)             45.3994         calculate D2E/DX2 analytically  !
 ! D31   D(9,4,5,29)           -73.7786         calculate D2E/DX2 analytically  !
 ! D32   D(9,4,5,30)           169.6512         calculate D2E/DX2 analytically  !
 ! D33   D(28,4,5,6)           -75.5363         calculate D2E/DX2 analytically  !
 ! D34   D(28,4,5,29)          165.2858         calculate D2E/DX2 analytically  !
 ! D35   D(28,4,5,30)           48.7155         calculate D2E/DX2 analytically  !
 ! D36   D(3,4,9,8)           -164.5526         calculate D2E/DX2 analytically  !
 ! D37   D(3,4,9,37)            70.7518         calculate D2E/DX2 analytically  !
 ! D38   D(3,4,9,38)           -45.9892         calculate D2E/DX2 analytically  !
 ! D39   D(5,4,9,8)            -46.1023         calculate D2E/DX2 analytically  !
 ! D40   D(5,4,9,37)          -170.7978         calculate D2E/DX2 analytically  !
 ! D41   D(5,4,9,38)            72.4611         calculate D2E/DX2 analytically  !
 ! D42   D(28,4,9,8)            74.3803         calculate D2E/DX2 analytically  !
 ! D43   D(28,4,9,37)          -50.3152         calculate D2E/DX2 analytically  !
 ! D44   D(28,4,9,38)         -167.0562         calculate D2E/DX2 analytically  !
 ! D45   D(4,5,6,7)            -48.1359         calculate D2E/DX2 analytically  !
 ! D46   D(4,5,6,31)          -173.8634         calculate D2E/DX2 analytically  !
 ! D47   D(4,5,6,32)            71.1339         calculate D2E/DX2 analytically  !
 ! D48   D(29,5,6,7)            72.9897         calculate D2E/DX2 analytically  !
 ! D49   D(29,5,6,31)          -52.7377         calculate D2E/DX2 analytically  !
 ! D50   D(29,5,6,32)         -167.7404         calculate D2E/DX2 analytically  !
 ! D51   D(30,5,6,7)          -172.588          calculate D2E/DX2 analytically  !
 ! D52   D(30,5,6,31)           61.6846         calculate D2E/DX2 analytically  !
 ! D53   D(30,5,6,32)          -53.3181         calculate D2E/DX2 analytically  !
 ! D54   D(5,6,7,8)             48.8375         calculate D2E/DX2 analytically  !
 ! D55   D(5,6,7,33)           -71.3873         calculate D2E/DX2 analytically  !
 ! D56   D(5,6,7,34)           172.1111         calculate D2E/DX2 analytically  !
 ! D57   D(31,6,7,8)           174.8605         calculate D2E/DX2 analytically  !
 ! D58   D(31,6,7,33)           54.6357         calculate D2E/DX2 analytically  !
 ! D59   D(31,6,7,34)          -61.8659         calculate D2E/DX2 analytically  !
 ! D60   D(32,6,7,8)           -70.2741         calculate D2E/DX2 analytically  !
 ! D61   D(32,6,7,33)          169.5011         calculate D2E/DX2 analytically  !
 ! D62   D(32,6,7,34)           52.9995         calculate D2E/DX2 analytically  !
 ! D63   D(6,7,8,9)            -48.5808         calculate D2E/DX2 analytically  !
 ! D64   D(6,7,8,35)          -175.4239         calculate D2E/DX2 analytically  !
 ! D65   D(6,7,8,36)            71.0503         calculate D2E/DX2 analytically  !
 ! D66   D(33,7,8,9)            71.8045         calculate D2E/DX2 analytically  !
 ! D67   D(33,7,8,35)          -55.0386         calculate D2E/DX2 analytically  !
 ! D68   D(33,7,8,36)         -168.5644         calculate D2E/DX2 analytically  !
 ! D69   D(34,7,8,9)          -171.8623         calculate D2E/DX2 analytically  !
 ! D70   D(34,7,8,35)           61.2946         calculate D2E/DX2 analytically  !
 ! D71   D(34,7,8,36)          -52.2312         calculate D2E/DX2 analytically  !
 ! D72   D(7,8,9,4)             48.3294         calculate D2E/DX2 analytically  !
 ! D73   D(7,8,9,37)           173.2037         calculate D2E/DX2 analytically  !
 ! D74   D(7,8,9,38)           -73.1715         calculate D2E/DX2 analytically  !
 ! D75   D(35,8,9,4)           174.0518         calculate D2E/DX2 analytically  !
 ! D76   D(35,8,9,37)          -61.0739         calculate D2E/DX2 analytically  !
 ! D77   D(35,8,9,38)           52.5509         calculate D2E/DX2 analytically  !
 ! D78   D(36,8,9,4)           -71.4813         calculate D2E/DX2 analytically  !
 ! D79   D(36,8,9,37)           53.393          calculate D2E/DX2 analytically  !
 ! D80   D(36,8,9,38)          167.0179         calculate D2E/DX2 analytically  !
 ! D81   D(24,10,11,12)         -4.1784         calculate D2E/DX2 analytically  !
 ! D82   D(24,10,11,43)        176.1923         calculate D2E/DX2 analytically  !
 ! D83   D(54,10,11,12)        175.8333         calculate D2E/DX2 analytically  !
 ! D84   D(54,10,11,43)         -3.796          calculate D2E/DX2 analytically  !
 ! D85   D(11,10,24,23)         -0.5398         calculate D2E/DX2 analytically  !
 ! D86   D(11,10,24,42)       -178.5209         calculate D2E/DX2 analytically  !
 ! D87   D(54,10,24,23)        179.4484         calculate D2E/DX2 analytically  !
 ! D88   D(54,10,24,42)          1.4673         calculate D2E/DX2 analytically  !
 ! D89   D(10,11,12,13)          4.3712         calculate D2E/DX2 analytically  !
 ! D90   D(10,11,12,49)       -177.7705         calculate D2E/DX2 analytically  !
 ! D91   D(43,11,12,13)       -175.9917         calculate D2E/DX2 analytically  !
 ! D92   D(43,11,12,49)          1.8666         calculate D2E/DX2 analytically  !
 ! D93   D(10,11,43,44)         96.9036         calculate D2E/DX2 analytically  !
 ! D94   D(10,11,43,45)        -35.7926         calculate D2E/DX2 analytically  !
 ! D95   D(10,11,43,47)       -148.8768         calculate D2E/DX2 analytically  !
 ! D96   D(12,11,43,44)        -82.7298         calculate D2E/DX2 analytically  !
 ! D97   D(12,11,43,45)        144.5739         calculate D2E/DX2 analytically  !
 ! D98   D(12,11,43,47)         31.4897         calculate D2E/DX2 analytically  !
 ! D99   D(11,12,13,23)          0.1661         calculate D2E/DX2 analytically  !
 ! D100  D(11,12,13,39)        176.7358         calculate D2E/DX2 analytically  !
 ! D101  D(49,12,13,23)       -177.731          calculate D2E/DX2 analytically  !
 ! D102  D(49,12,13,39)         -1.1613         calculate D2E/DX2 analytically  !
 ! D103  D(11,12,49,50)       -179.974          calculate D2E/DX2 analytically  !
 ! D104  D(13,12,49,50)         -2.106          calculate D2E/DX2 analytically  !
 ! D105  D(12,13,23,22)        173.5            calculate D2E/DX2 analytically  !
 ! D106  D(12,13,23,24)         -4.7811         calculate D2E/DX2 analytically  !
 ! D107  D(39,13,23,22)         -3.0408         calculate D2E/DX2 analytically  !
 ! D108  D(39,13,23,24)        178.6781         calculate D2E/DX2 analytically  !
 ! D109  D(1,14,15,16)        -179.5335         calculate D2E/DX2 analytically  !
 ! D110  D(1,14,15,17)           1.1588         calculate D2E/DX2 analytically  !
 ! D111  D(14,15,16,3)          18.2854         calculate D2E/DX2 analytically  !
 ! D112  D(17,15,16,3)        -162.4339         calculate D2E/DX2 analytically  !
 ! D113  D(14,15,17,18)       -179.8954         calculate D2E/DX2 analytically  !
 ! D114  D(14,15,17,20)         -0.6675         calculate D2E/DX2 analytically  !
 ! D115  D(16,15,17,18)          0.806          calculate D2E/DX2 analytically  !
 ! D116  D(16,15,17,20)       -179.9661         calculate D2E/DX2 analytically  !
 ! D117  D(15,17,18,2)         178.8317         calculate D2E/DX2 analytically  !
 ! D118  D(20,17,18,2)          -0.4835         calculate D2E/DX2 analytically  !
 ! D119  D(15,17,20,19)       -179.0241         calculate D2E/DX2 analytically  !
 ! D120  D(15,17,20,21)         -0.5623         calculate D2E/DX2 analytically  !
 ! D121  D(18,17,20,19)          0.4672         calculate D2E/DX2 analytically  !
 ! D122  D(18,17,20,21)        178.9289         calculate D2E/DX2 analytically  !
 ! D123  D(2,19,20,17)          -0.2906         calculate D2E/DX2 analytically  !
 ! D124  D(2,19,20,21)        -178.6158         calculate D2E/DX2 analytically  !
 ! D125  D(40,19,20,17)       -176.0375         calculate D2E/DX2 analytically  !
 ! D126  D(40,19,20,21)          5.6373         calculate D2E/DX2 analytically  !
 ! D127  D(17,20,21,1)           1.4077         calculate D2E/DX2 analytically  !
 ! D128  D(19,20,21,1)         179.6321         calculate D2E/DX2 analytically  !
 ! D129  D(1,22,23,13)         -33.0323         calculate D2E/DX2 analytically  !
 ! D130  D(1,22,23,24)         145.2256         calculate D2E/DX2 analytically  !
 ! D131  D(41,22,23,13)        125.3306         calculate D2E/DX2 analytically  !
 ! D132  D(41,22,23,24)        -56.4116         calculate D2E/DX2 analytically  !
 ! D133  D(13,23,24,10)          4.9499         calculate D2E/DX2 analytically  !
 ! D134  D(13,23,24,42)       -176.9994         calculate D2E/DX2 analytically  !
 ! D135  D(22,23,24,10)       -173.364          calculate D2E/DX2 analytically  !
 ! D136  D(22,23,24,42)          4.6867         calculate D2E/DX2 analytically  !
 ! D137  D(11,43,47,46)         50.0911         calculate D2E/DX2 analytically  !
 ! D138  D(11,43,47,48)        -75.2041         calculate D2E/DX2 analytically  !
 ! D139  D(44,43,47,46)        165.2764         calculate D2E/DX2 analytically  !
 ! D140  D(44,43,47,48)         39.9811         calculate D2E/DX2 analytically  !
 ! D141  D(45,43,47,46)        -65.6333         calculate D2E/DX2 analytically  !
 ! D142  D(45,43,47,48)        169.0714         calculate D2E/DX2 analytically  !
 ! D143  D(12,49,50,51)       -179.9992         calculate D2E/DX2 analytically  !
 ! D144  D(12,49,50,52)        -59.9817         calculate D2E/DX2 analytically  !
 ! D145  D(12,49,50,53)         59.9929         calculate D2E/DX2 analytically  !
 --------------------------------------------------------------------------------
 Trust Radius=3.00D-01 FncErr=1.00D-07 GrdErr=1.00D-07 EigMax=2.50D+02 EigMin=1.00D-04
 Number of steps in this run=    313 maximum allowed number of steps=    324.
 GradGradGradGradGradGradGradGradGradGradGradGradGradGradGradGradGradGrad

 Leave Link  103 at Thu Jan 30 14:40:10 2025, MaxMem=   104857600 cpu:               0.0 elap:               0.0
 (Enter /home/pb777/GAUSSIAN/g16/l202.exe)
 Stoichiometry    C19H24N6O4S
 Framework group  C1[X(C19H24N6O4S)]
 Deg. of freedom   156
 Full point group                 C1      NOp   1
 Largest Abelian subgroup         C1      NOp   1
 Largest concise Abelian subgroup C1      NOp   1
                         Standard orientation:                         
 ---------------------------------------------------------------------
 Center     Atomic      Atomic             Coordinates (Angstroms)
 Number     Number       Type             X           Y           Z
 ---------------------------------------------------------------------
      1          6           0        1.856929   -2.213710   -0.298068
      2          6           0        6.165454   -1.552660    0.461041
      3          6           0        1.552316    1.594793   -0.623516
      4          6           0        1.430222    3.131838   -0.476612
      5          6           0        0.412498    3.601963   -1.536451
      6          6           0       -0.107744    5.030645   -1.303730
      7          6           0       -0.574849    5.344570    0.124973
      8          6           0        0.467838    4.902209    1.176384
      9          6           0        0.988821    3.462770    0.984465
     10          6           0       -2.811521   -2.765751   -0.866220
     11          6           0       -3.104570   -1.619749   -0.111115
     12          6           0       -2.115273   -1.029127    0.675329
     13          6           0       -0.816513   -1.525881    0.636828
     14          7           0        1.896660   -0.778311   -0.567555
     15          6           0        2.976984   -0.075894   -0.471431
     16          8           0        2.955515    1.243829   -0.721848
     17          6           0        4.200764   -0.761855   -0.102559
     18          7           0        5.587188   -0.476128    0.130595
     19          7           0        5.328575   -2.562003    0.475748
     20          6           0        4.170396   -2.079396    0.136532
     21          7           0        2.938912   -2.788001    0.038115
     22          7           0        0.851153   -3.032786   -0.329982
     23          6           0       -0.478163   -2.608954   -0.180694
     24          6           0       -1.491458   -3.249524   -0.884407
     25          1           0        7.206198   -1.670057    0.685835
     26          1           0        1.052911    1.273148   -1.544974
     27          1           0        0.983752    1.173727    0.216975
     28          1           0        2.384909    3.619580   -0.679426
     29          1           0       -0.462471    2.949147   -1.526320
     30          1           0        0.839239    3.517681   -2.537886
     31          1           0       -0.899095    5.269491   -2.014354
     32          1           0        0.713761    5.706964   -1.529235
     33          1           0       -1.511931    4.818814    0.316881
     34          1           0       -0.792788    6.408201    0.229273
     35          1           0        0.075708    5.062892    2.174515
     36          1           0        1.324318    5.575978    1.104812
     37          1           0        1.802764    3.262353    1.682971
     38          1           0        0.166133    2.814333    1.292977
     39          1           0       -0.050942   -1.027361    1.208379
     40          1           0        5.604534   -3.528885    0.658883
     41          1           0        1.060607   -4.001814   -0.134955
     42          1           0       -1.222877   -4.111116   -1.469923
     43         16           0       -4.740131   -0.898482   -0.128578
     44          8           0       -5.460596   -1.396234    1.041650
     45          8           0       -5.305292   -1.038242   -1.472665
     46          1           0       -3.865195    1.175219   -0.539261
     47          7           0       -4.556393    0.790188    0.099876
     48          1           0       -4.330910    1.040678    1.088773
     49          8           0       -2.389885    0.058047    1.451795
     50          6           0       -1.183754    0.390881    2.101904
     51          1           0       -1.346658    1.281479    2.757828
     52          1           0       -0.845367   -0.474546    2.725025
     53          1           0       -0.401696    0.628624    1.337118
     54          1           0       -3.593669   -3.261717   -1.421625
 ---------------------------------------------------------------------
 Rotational constants (GHZ):           0.1693217           0.0993599           0.0682215
 Leave Link  202 at Thu Jan 30 14:40:10 2025, MaxMem=   104857600 cpu:               0.0 elap:               0.0
 (Enter /home/pb777/GAUSSIAN/g16/l301.exe)
 Standard basis: 6-31G(d) (6D, 7F)
 Ernie: Thresh=  0.10000D-02 Tol=  0.10000D-05 Strict=F.
 There are   502 symmetry adapted cartesian basis functions of A   symmetry.
 There are   502 symmetry adapted basis functions of A   symmetry.
   502 basis functions,   960 primitive gaussians,   502 cartesian basis functions
   114 alpha electrons      114 beta electrons
       nuclear repulsion energy      3193.7501617284 Hartrees.
 IExCor=    0 DFT=F Ex=HF Corr=None ExCW=0 ScaHFX=  1.000000
 ScaDFX=  1.000000  1.000000  1.000000  1.000000 ScalE2=  1.000000  1.000000
 IRadAn=      5 IRanWt=     -1 IRanGd=            0 ICorTp=0 IEmpDi=  4
 NAtoms=   54 NActive=   54 NUniq=   54 SFac= 1.00D+00 NAtFMM=   60 NAOKFM=F Big=F
 Integral buffers will be    131072 words long.
 Raffenetti 1 integral format.
 Two-electron integral symmetry is turned on.
 Leave Link  301 at Thu Jan 30 14:40:10 2025, MaxMem=   104857600 cpu:               0.0 elap:               0.0
 (Enter /home/pb777/GAUSSIAN/g16/l302.exe)
 NPDir=0 NMtPBC=     1 NCelOv=     1 NCel=       1 NClECP=     1 NCelD=      1
         NCelK=      1 NCelE2=     1 NClLst=     1 CellRange=     0.0.
 One-electron integrals computed using PRISM.
 One-electron integral symmetry used in STVInt
 NBasis=   502 RedAO= T EigKep=  3.97D-04  NBF=   502
 NBsUse=   502 1.00D-06 EigRej= -1.00D+00 NBFU=   502
 Leave Link  302 at Thu Jan 30 14:40:10 2025, MaxMem=   104857600 cpu:               0.2 elap:               0.2
 (Enter /home/pb777/GAUSSIAN/g16/l303.exe)
 DipDrv:  MaxL=1.
 Leave Link  303 at Thu Jan 30 14:40:10 2025, MaxMem=   104857600 cpu:               0.1 elap:               0.1
 (Enter /home/pb777/GAUSSIAN/g16/l401.exe)
 ExpMin= 1.17D-01 ExpMax= 2.19D+04 ExpMxC= 3.30D+03 IAcc=3 IRadAn=         5 AccDes= 0.00D+00
 Harris functional with IExCor=  205 and IRadAn=       5 diagonalized for initial guess.
 HarFok:  IExCor=  205 AccDes= 0.00D+00 IRadAn=         5 IDoV= 1 UseB2=F ITyADJ=14
 ICtDFT=  3500011 ScaDFX=  1.000000  1.000000  1.000000  1.000000
 FoFCou: FMM=F IPFlag=           0 FMFlag=      100000 FMFlg1=           0
         NFxFlg=           0 DoJE=T BraDBF=F KetDBF=T FulRan=T
         wScrn=  0.000000 ICntrl=       500 IOpCl=  0 I1Cent=   200000004 NGrid=           0
         NMat0=    1 NMatS0=      1 NMatT0=    0 NMatD0=    1 NMtDS0=    0 NMtDT0=    0
 Petite list used in FoFCou.
 Harris En= -1758.23592793592    
 JPrj=0 DoOrth=F DoCkMO=F.
 Leave Link  401 at Thu Jan 30 14:40:20 2025, MaxMem=   104857600 cpu:              10.1 elap:              10.2
 (Enter /home/pb777/GAUSSIAN/g16/l502.exe)
 Integral symmetry usage will be decided dynamically.
 Closed shell SCF:
 Using DIIS extrapolation, IDIIS=  1040.
 NGot=   104857600 LenX=   104345051 LenY=   104092545
 Requested convergence on RMS density matrix=1.00D-08 within 128 cycles.
 Requested convergence on MAX density matrix=1.00D-06.
 Requested convergence on             energy=1.00D-06.
 No special actions if energy rises.
 Fock matrices will be formed incrementally for  20 cycles.
 Integral accuracy reduced to 1.0D-05 until final iterations.

 Cycle   1  Pass 0  IDiag  1:
 FoFJK:  IHMeth= 1 ICntrl=       0 DoSepK=F KAlg= 0 I1Cent=           0 FoldK=F
 IRaf= 690000000 NMat=       1 IRICut=       1 DoRegI=T DoRafI=F ISym2E= 0 IDoP0=0 IntGTp=1.
 FoFCou: FMM=F IPFlag=           0 FMFlag=      100000 FMFlg1=           0
         NFxFlg=           0 DoJE=F BraDBF=F KetDBF=F FulRan=T
         wScrn=  0.000000 ICntrl=         0 IOpCl=  0 I1Cent=           0 NGrid=           0
         NMat0=    1 NMatS0=      1 NMatT0=    0 NMatD0=    1 NMtDS0=    0 NMtDT0=    0
 Symmetry not used in FoFCou.
 E= -1755.73819038280    
 DIIS: error= 5.75D-02 at cycle   1 NSaved=   1.
 NSaved= 1 IEnMin= 1 EnMin= -1755.73819038280     IErMin= 1 ErrMin= 5.75D-02
 ErrMax= 5.75D-02  0.00D+00 EMaxC= 1.00D-01 BMatC= 2.11D+00 BMatP= 2.11D+00
 IDIUse=3 WtCom= 4.25D-01 WtEn= 5.75D-01
 Coeff-Com:  0.100D+01
 Coeff-En:   0.100D+01
 Coeff:      0.100D+01
 Gap=     0.410 Goal=   None    Shift=    0.000
 GapD=    0.410 DampG=2.000 DampE=0.500 DampFc=1.0000 IDamp=-1.
 RMSDP=3.45D-03 MaxDP=1.89D-01              OVMax= 1.31D-01

 Cycle   2  Pass 0  IDiag  1:
 RMSU=  3.40D-03    CP:  9.60D-01
 E= -1756.68084354950     Delta-E=       -0.942653166704 Rises=F Damp=F
 DIIS: error= 1.47D-02 at cycle   2 NSaved=   2.
 NSaved= 2 IEnMin= 2 EnMin= -1756.68084354950     IErMin= 2 ErrMin= 1.47D-02
 ErrMax= 1.47D-02  0.00D+00 EMaxC= 1.00D-01 BMatC= 2.98D-01 BMatP= 2.11D+00
 IDIUse=3 WtCom= 8.53D-01 WtEn= 1.47D-01
 Coeff-Com:  0.200D+00 0.800D+00
 Coeff-En:   0.000D+00 0.100D+01
 Coeff:      0.171D+00 0.829D+00
 Gap=     0.414 Goal=   None    Shift=    0.000
 RMSDP=1.39D-03 MaxDP=1.76D-01 DE=-9.43D-01 OVMax= 7.12D-02

 Cycle   3  Pass 0  IDiag  1:
 RMSU=  1.16D-03    CP:  9.63D-01  7.74D-01
 E= -1756.88520216606     Delta-E=       -0.204358616563 Rises=F Damp=F
 DIIS: error= 6.68D-03 at cycle   3 NSaved=   3.
 NSaved= 3 IEnMin= 3 EnMin= -1756.88520216606     IErMin= 3 ErrMin= 6.68D-03
 ErrMax= 6.68D-03  0.00D+00 EMaxC= 1.00D-01 BMatC= 4.59D-02 BMatP= 2.98D-01
 IDIUse=3 WtCom= 9.33D-01 WtEn= 6.68D-02
 Coeff-Com: -0.191D-01 0.256D+00 0.763D+00
 Coeff-En:   0.000D+00 0.000D+00 0.100D+01
 Coeff:     -0.178D-01 0.239D+00 0.779D+00
 Gap=     0.394 Goal=   None    Shift=    0.000
 RMSDP=4.23D-04 MaxDP=5.33D-02 DE=-2.04D-01 OVMax= 2.84D-02

 Cycle   4  Pass 0  IDiag  1:
 RMSU=  2.63D-04    CP:  9.62D-01  8.49D-01  8.17D-01
 E= -1756.92066767932     Delta-E=       -0.035465513259 Rises=F Damp=F
 DIIS: error= 1.62D-03 at cycle   4 NSaved=   4.
 NSaved= 4 IEnMin= 4 EnMin= -1756.92066767932     IErMin= 4 ErrMin= 1.62D-03
 ErrMax= 1.62D-03  0.00D+00 EMaxC= 1.00D-01 BMatC= 2.14D-03 BMatP= 4.59D-02
 IDIUse=3 WtCom= 9.84D-01 WtEn= 1.62D-02
 Coeff-Com: -0.109D-01 0.469D-01 0.246D+00 0.718D+00
 Coeff-En:   0.000D+00 0.000D+00 0.000D+00 0.100D+01
 Coeff:     -0.107D-01 0.462D-01 0.242D+00 0.722D+00
 Gap=     0.397 Goal=   None    Shift=    0.000
 RMSDP=1.07D-04 MaxDP=7.62D-03 DE=-3.55D-02 OVMax= 7.65D-03

 Cycle   5  Pass 0  IDiag  1:
 RMSU=  7.33D-05    CP:  9.62D-01  8.50D-01  8.70D-01  8.21D-01
 E= -1756.92265867711     Delta-E=       -0.001990997785 Rises=F Damp=F
 DIIS: error= 3.48D-04 at cycle   5 NSaved=   5.
 NSaved= 5 IEnMin= 5 EnMin= -1756.92265867711     IErMin= 5 ErrMin= 3.48D-04
 ErrMax= 3.48D-04  0.00D+00 EMaxC= 1.00D-01 BMatC= 1.26D-04 BMatP= 2.14D-03
 IDIUse=3 WtCom= 9.97D-01 WtEn= 3.48D-03
 Coeff-Com:  0.671D-03-0.167D-01-0.466D-01 0.752D-01 0.988D+00
 Coeff-En:   0.000D+00 0.000D+00 0.000D+00 0.000D+00 0.100D+01
 Coeff:      0.669D-03-0.167D-01-0.465D-01 0.749D-01 0.988D+00
 Gap=     0.397 Goal=   None    Shift=    0.000
 RMSDP=4.13D-05 MaxDP=1.64D-03 DE=-1.99D-03 OVMax= 3.49D-03

 Cycle   6  Pass 0  IDiag  1:
 RMSU=  2.57D-05    CP:  9.62D-01  8.51D-01  8.82D-01  9.26D-01  1.10D+00
 E= -1756.92287662929     Delta-E=       -0.000217952181 Rises=F Damp=F
 DIIS: error= 1.36D-04 at cycle   6 NSaved=   6.
 NSaved= 6 IEnMin= 6 EnMin= -1756.92287662929     IErMin= 6 ErrMin= 1.36D-04
 ErrMax= 1.36D-04  0.00D+00 EMaxC= 1.00D-01 BMatC= 1.68D-05 BMatP= 1.26D-04
 IDIUse=3 WtCom= 9.99D-01 WtEn= 1.36D-03
 Coeff-Com:  0.134D-02-0.897D-02-0.386D-01-0.704D-01 0.184D+00 0.933D+00
 Coeff-En:   0.000D+00 0.000D+00 0.000D+00 0.000D+00 0.000D+00 0.100D+01
 Coeff:      0.134D-02-0.895D-02-0.385D-01-0.703D-01 0.183D+00 0.933D+00
 Gap=     0.398 Goal=   None    Shift=    0.000
 RMSDP=1.61D-05 MaxDP=1.05D-03 DE=-2.18D-04 OVMax= 1.54D-03

 Cycle   7  Pass 0  IDiag  1:
 RMSU=  8.76D-06    CP:  9.62D-01  8.51D-01  8.86D-01  9.47D-01  1.25D+00
                    CP:  1.07D+00
 E= -1756.92291328640     Delta-E=       -0.000036657108 Rises=F Damp=F
 DIIS: error= 4.45D-05 at cycle   7 NSaved=   7.
 NSaved= 7 IEnMin= 7 EnMin= -1756.92291328640     IErMin= 7 ErrMin= 4.45D-05
 ErrMax= 4.45D-05  0.00D+00 EMaxC= 1.00D-01 BMatC= 2.32D-06 BMatP= 1.68D-05
 IDIUse=1 WtCom= 1.00D+00 WtEn= 0.00D+00
 Coeff-Com:  0.104D-03 0.678D-03 0.106D-03-0.192D-01-0.922D-01 0.129D+00
 Coeff-Com:  0.981D+00
 Coeff:      0.104D-03 0.678D-03 0.106D-03-0.192D-01-0.922D-01 0.129D+00
 Coeff:      0.981D+00
 Gap=     0.398 Goal=   None    Shift=    0.000
 RMSDP=6.33D-06 MaxDP=2.61D-04 DE=-3.67D-05 OVMax= 6.00D-04

 Initial convergence to 1.0D-05 achieved.  Increase integral accuracy.
 Cycle   8  Pass 1  IDiag  1:
 E= -1756.92291991480     Delta-E=       -0.000006628403 Rises=F Damp=F
 DIIS: error= 7.52D-05 at cycle   1 NSaved=   1.
 NSaved= 1 IEnMin= 1 EnMin= -1756.92291991480     IErMin= 1 ErrMin= 7.52D-05
 ErrMax= 7.52D-05  0.00D+00 EMaxC= 1.00D-01 BMatC= 2.22D-06 BMatP= 2.22D-06
 IDIUse=1 WtCom= 1.00D+00 WtEn= 0.00D+00
 Coeff-Com:  0.100D+01
 Coeff:      0.100D+01
 Gap=     0.398 Goal=   None    Shift=    0.000
 RMSDP=6.33D-06 MaxDP=2.61D-04 DE=-6.63D-06 OVMax= 2.89D-04

 Cycle   9  Pass 1  IDiag  1:
 RMSU=  2.71D-05    CP:  1.00D+00
 E= -1756.92292206117     Delta-E=       -0.000002146368 Rises=F Damp=F
 DIIS: error= 1.63D-05 at cycle   2 NSaved=   2.
 NSaved= 2 IEnMin= 2 EnMin= -1756.92292206117     IErMin= 2 ErrMin= 1.63D-05
 ErrMax= 1.63D-05  0.00D+00 EMaxC= 1.00D-01 BMatC= 1.61D-07 BMatP= 2.22D-06
 IDIUse=1 WtCom= 1.00D+00 WtEn= 0.00D+00
 Coeff-Com:  0.402D-01 0.960D+00
 Coeff:      0.402D-01 0.960D+00
 Gap=     0.398 Goal=   None    Shift=    0.000
 RMSDP=1.93D-06 MaxDP=7.65D-05 DE=-2.15D-06 OVMax= 1.83D-04

 Cycle  10  Pass 1  IDiag  1:
 RMSU=  1.50D-06    CP:  1.00D+00  1.04D+00
 E= -1756.92292233069     Delta-E=       -0.000000269527 Rises=F Damp=F
 DIIS: error= 7.32D-06 at cycle   3 NSaved=   3.
 NSaved= 3 IEnMin= 3 EnMin= -1756.92292233069     IErMin= 3 ErrMin= 7.32D-06
 ErrMax= 7.32D-06  0.00D+00 EMaxC= 1.00D-01 BMatC= 7.17D-08 BMatP= 1.61D-07
 IDIUse=1 WtCom= 1.00D+00 WtEn= 0.00D+00
 Coeff-Com: -0.429D-01 0.345D+00 0.698D+00
 Coeff:     -0.429D-01 0.345D+00 0.698D+00
 Gap=     0.398 Goal=   None    Shift=    0.000
 RMSDP=7.06D-07 MaxDP=3.90D-05 DE=-2.70D-07 OVMax= 9.51D-05

 Cycle  11  Pass 1  IDiag  1:
 RMSU=  6.67D-07    CP:  1.00D+00  1.05D+00  9.30D-01
 E= -1756.92292244813     Delta-E=       -0.000000117439 Rises=F Damp=F
 DIIS: error= 6.43D-06 at cycle   4 NSaved=   4.
 NSaved= 4 IEnMin= 4 EnMin= -1756.92292244813     IErMin= 4 ErrMin= 6.43D-06
 ErrMax= 6.43D-06  0.00D+00 EMaxC= 1.00D-01 BMatC= 1.24D-08 BMatP= 7.17D-08
 IDIUse=1 WtCom= 1.00D+00 WtEn= 0.00D+00
 Coeff-Com:  0.117D-01-0.426D+00-0.333D+00 0.175D+01
 Coeff:      0.117D-01-0.426D+00-0.333D+00 0.175D+01
 Gap=     0.398 Goal=   None    Shift=    0.000
 RMSDP=8.38D-07 MaxDP=5.21D-05 DE=-1.17D-07 OVMax= 1.25D-04

 Cycle  12  Pass 1  IDiag  1:
 RMSU=  2.81D-07    CP:  1.00D+00  1.05D+00  1.30D+00  1.83D+00
 E= -1756.92292251290     Delta-E=       -0.000000064767 Rises=F Damp=F
 DIIS: error= 1.72D-06 at cycle   5 NSaved=   5.
 NSaved= 5 IEnMin= 5 EnMin= -1756.92292251290     IErMin= 5 ErrMin= 1.72D-06
 ErrMax= 1.72D-06  0.00D+00 EMaxC= 1.00D-01 BMatC= 1.40D-09 BMatP= 1.24D-08
 IDIUse=1 WtCom= 1.00D+00 WtEn= 0.00D+00
 Coeff-Com:  0.825D-02-0.174D+00-0.180D+00 0.562D+00 0.783D+00
 Coeff:      0.825D-02-0.174D+00-0.180D+00 0.562D+00 0.783D+00
 Gap=     0.398 Goal=   None    Shift=    0.000
 RMSDP=1.66D-07 MaxDP=9.18D-06 DE=-6.48D-08 OVMax= 2.83D-05

 Cycle  13  Pass 1  IDiag  1:
 RMSU=  8.24D-08    CP:  1.00D+00  1.05D+00  1.35D+00  2.01D+00  1.13D+00
 E= -1756.92292251671     Delta-E=       -0.000000003810 Rises=F Damp=F
 DIIS: error= 5.19D-07 at cycle   6 NSaved=   6.
 NSaved= 6 IEnMin= 6 EnMin= -1756.92292251671     IErMin= 6 ErrMin= 5.19D-07
 ErrMax= 5.19D-07  0.00D+00 EMaxC= 1.00D-01 BMatC= 1.92D-10 BMatP= 1.40D-09
 IDIUse=1 WtCom= 1.00D+00 WtEn= 0.00D+00
 Coeff-Com: -0.305D-02 0.939D-01 0.769D-01-0.360D+00-0.112D+00 0.130D+01
 Coeff:     -0.305D-02 0.939D-01 0.769D-01-0.360D+00-0.112D+00 0.130D+01
 Gap=     0.398 Goal=   None    Shift=    0.000
 RMSDP=8.93D-08 MaxDP=3.91D-06 DE=-3.81D-09 OVMax= 1.45D-05

 Cycle  14  Pass 1  IDiag  1:
 RMSU=  4.64D-08    CP:  1.00D+00  1.05D+00  1.37D+00  2.05D+00  1.33D+00
                    CP:  1.42D+00
 E= -1756.92292251753     Delta-E=       -0.000000000819 Rises=F Damp=F
 DIIS: error= 2.03D-07 at cycle   7 NSaved=   7.
 NSaved= 7 IEnMin= 7 EnMin= -1756.92292251753     IErMin= 7 ErrMin= 2.03D-07
 ErrMax= 2.03D-07  0.00D+00 EMaxC= 1.00D-01 BMatC= 3.50D-11 BMatP= 1.92D-10
 IDIUse=1 WtCom= 1.00D+00 WtEn= 0.00D+00
 Coeff-Com: -0.231D-02 0.552D-01 0.520D-01-0.190D+00-0.175D+00 0.293D+00
 Coeff-Com:  0.967D+00
 Coeff:     -0.231D-02 0.552D-01 0.520D-01-0.190D+00-0.175D+00 0.293D+00
 Coeff:      0.967D+00
 Gap=     0.398 Goal=   None    Shift=    0.000
 RMSDP=3.42D-08 MaxDP=1.83D-06 DE=-8.19D-10 OVMax= 5.48D-06

 Cycle  15  Pass 1  IDiag  1:
 RMSU=  1.53D-08    CP:  1.00D+00  1.05D+00  1.37D+00  2.07D+00  1.39D+00
                    CP:  1.63D+00  1.36D+00
 E= -1756.92292251766     Delta-E=       -0.000000000135 Rises=F Damp=F
 DIIS: error= 5.65D-08 at cycle   8 NSaved=   8.
 NSaved= 8 IEnMin= 8 EnMin= -1756.92292251766     IErMin= 8 ErrMin= 5.65D-08
 ErrMax= 5.65D-08  0.00D+00 EMaxC= 1.00D-01 BMatC= 3.45D-12 BMatP= 3.50D-11
 IDIUse=1 WtCom= 1.00D+00 WtEn= 0.00D+00
 Coeff-Com:  0.243D-03-0.869D-02-0.708D-02 0.356D-01 0.257D-02-0.166D+00
 Coeff-Com:  0.793D-01 0.106D+01
 Coeff:      0.243D-03-0.869D-02-0.708D-02 0.356D-01 0.257D-02-0.166D+00
 Coeff:      0.793D-01 0.106D+01
 Gap=     0.398 Goal=   None    Shift=    0.000
 RMSDP=1.19D-08 MaxDP=5.24D-07 DE=-1.35D-10 OVMax= 1.76D-06

 Cycle  16  Pass 1  IDiag  1:
 RMSU=  4.71D-09    CP:  1.00D+00  1.05D+00  1.37D+00  2.07D+00  1.39D+00
                    CP:  1.67D+00  1.55D+00  1.17D+00
 E= -1756.92292251764     Delta-E=        0.000000000020 Rises=F Damp=F
 DIIS: error= 1.37D-08 at cycle   9 NSaved=   9.
 NSaved= 9 IEnMin= 8 EnMin= -1756.92292251766     IErMin= 9 ErrMin= 1.37D-08
 ErrMax= 1.37D-08  0.00D+00 EMaxC= 1.00D-01 BMatC= 3.55D-13 BMatP= 3.45D-12
 IDIUse=1 WtCom= 1.00D+00 WtEn= 0.00D+00
 Coeff-Com:  0.245D-03-0.635D-02-0.592D-02 0.229D-01 0.161D-01-0.569D-01
 Coeff-Com: -0.753D-01 0.181D+00 0.925D+00
 Coeff:      0.245D-03-0.635D-02-0.592D-02 0.229D-01 0.161D-01-0.569D-01
 Coeff:     -0.753D-01 0.181D+00 0.925D+00
 Gap=     0.398 Goal=   None    Shift=    0.000
 RMSDP=2.91D-09 MaxDP=1.51D-07 DE= 2.00D-11 OVMax= 3.72D-07

 SCF Done:  E(RHF) =  -1756.92292252     A.U. after   16 cycles
            NFock= 16  Conv=0.29D-08     -V/T= 2.0017
 KE= 1.753929951983D+03 PE=-1.051171723245D+04 EE= 3.807114196223D+03
 Leave Link  502 at Thu Jan 30 14:43:14 2025, MaxMem=   104857600 cpu:             171.6 elap:             173.8
 (Enter /home/pb777/GAUSSIAN/g16/l801.exe)
 Range of M.O.s used for correlation:     1   502
 NBasis=   502 NAE=   114 NBE=   114 NFC=     0 NFV=     0
 NROrb=    502 NOA=   114 NOB=   114 NVA=   388 NVB=   388
 Leave Link  801 at Thu Jan 30 14:43:14 2025, MaxMem=   104857600 cpu:               0.0 elap:               0.0
 (Enter /home/pb777/GAUSSIAN/g16/l1101.exe)
 Using compressed storage, NAtomX=    54.
 Will process     55 centers per pass.
 Leave Link 1101 at Thu Jan 30 14:43:15 2025, MaxMem=   104857600 cpu:               0.6 elap:               0.6
 (Enter /home/pb777/GAUSSIAN/g16/l1102.exe)
 Symmetrizing basis deriv contribution to polar:
 IMax=3 JMax=2 DiffMx= 0.00D+00
 Leave Link 1102 at Thu Jan 30 14:43:15 2025, MaxMem=   104857600 cpu:               0.1 elap:               0.1
 (Enter /home/pb777/GAUSSIAN/g16/l1110.exe)
 Forming Gx(P) for the SCF density, NAtomX=    54.
 Integral derivatives from FoFJK, PRISM(SPDF).
 Do as many integral derivatives as possible in FoFJK.
 G2DrvN: MDV=     104853576.
 G2DrvN: will do    55 centers at a time, making    1 passes.
 Calling FoFCou, ICntrl=  3107 FMM=F I1Cent=   0 AccDes= 0.00D+00.
 FoFJK:  IHMeth= 1 ICntrl=    3107 DoSepK=F KAlg= 0 I1Cent=           0 FoldK=F
 IRaf=         0 NMat=       1 IRICut=       1 DoRegI=T DoRafI=F ISym2E= 0 IDoP0=0 IntGTp=1.
 FoFCou: FMM=F IPFlag=           0 FMFlag=      100000 FMFlg1=           0
         NFxFlg=           0 DoJE=F BraDBF=F KetDBF=F FulRan=T
         wScrn=  0.000000 ICntrl=      3107 IOpCl=  0 I1Cent=           0 NGrid=           0
         NMat0=    1 NMatS0=      1 NMatT0=    0 NMatD0=    1 NMtDS0=    0 NMtDT0=    0
 Symmetry not used in FoFCou.
 End of G2Drv F.D. properties file   721 does not exist.
 End of G2Drv F.D. properties file   722 does not exist.
 End of G2Drv F.D. properties file   788 does not exist.
 Leave Link 1110 at Thu Jan 30 14:46:09 2025, MaxMem=   104857600 cpu:             173.4 elap:             174.4
 (Enter /home/pb777/GAUSSIAN/g16/l1002.exe)
 Minotr:  Closed shell wavefunction.
          IDoAtm=11111111111111111111111111111111111111111111111111
          IDoAtm=1111
          Direct CPHF calculation.
          Differentiating once with respect to nuclear coordinates.
          Requested convergence is 1.0D-08 RMS, and 1.0D-07 maximum.
          Secondary convergence is 1.0D-12 RMS, and 1.0D-12 maximum.
          NewPWx=T KeepS1=F KeepF1=F KeepIn=T MapXYZ=F SortEE=F KeepMc=T.
 Two-electron integrals replicated using symmetry.
          MDV=     104857600 using IRadAn=       1.
          Solving linear equations simultaneously, MaxMat=     384.
 FoF2E skips out because all densities are zero.
 FoFJK:  IHMeth= 1 ICntrl=       0 DoSepK=F KAlg= 0 I1Cent=           0 FoldK=F
 IRaf= 650000000 NMat=     162 IRICut=     405 DoRegI=T DoRafI=T ISym2E= 2 IDoP0=0 IntGTp=1.
 FoFCou: FMM=F IPFlag=           0 FMFlag=      100000 FMFlg1=           0
         NFxFlg=           0 DoJE=F BraDBF=F KetDBF=F FulRan=T
         wScrn=  0.000000 ICntrl=         0 IOpCl=  0 I1Cent=           0 NGrid=           0
         NMat0=  162 NMatS0=    162 NMatT0=    0 NMatD0=  162 NMtDS0=    0 NMtDT0=    0
 Integrals replicated using symmetry in FoFCou.
 Raff kept on since  59.16% of shell-pairs survive, threshold=   0.20 IRatSp=59.
          There are   165 degrees of freedom in the 1st order CPHF.  IDoFFX=6 NUNeed=     0.
    159 vectors produced by pass  0 Test12= 4.42D-14 1.00D-09 XBig12= 1.35D-01 9.43D-02.
 AX will form   159 AO Fock derivatives at one time.
    159 vectors produced by pass  1 Test12= 4.42D-14 1.00D-09 XBig12= 1.95D-02 2.46D-02.
    159 vectors produced by pass  2 Test12= 4.42D-14 1.00D-09 XBig12= 5.71D-04 3.21D-03.
    159 vectors produced by pass  3 Test12= 4.42D-14 1.00D-09 XBig12= 7.02D-06 3.34D-04.
    159 vectors produced by pass  4 Test12= 4.42D-14 1.00D-09 XBig12= 7.33D-08 3.09D-05.
    159 vectors produced by pass  5 Test12= 4.42D-14 1.00D-09 XBig12= 4.96D-10 1.67D-06.
    142 vectors produced by pass  6 Test12= 4.42D-14 1.00D-09 XBig12= 3.22D-12 1.21D-07.
     53 vectors produced by pass  7 Test12= 4.42D-14 1.00D-09 XBig12= 1.83D-14 7.60D-09.
 InvSVY:  IOpt=1 It=  1 EMax= 2.50D-16
 Solved reduced A of dimension  1149 with   165 vectors.
 End of Minotr F.D. properties file   721 does not exist.
 End of Minotr F.D. properties file   722 does not exist.
 End of Minotr F.D. properties file   788 does not exist.
 Leave Link 1002 at Thu Jan 30 15:34:41 2025, MaxMem=   104857600 cpu:            2896.9 elap:            2911.3
 (Enter /home/pb777/GAUSSIAN/g16/l601.exe)
 Copying SCF densities to generalized density rwf, IOpCl= 0 IROHF=0.

 **********************************************************************

            Population analysis using the SCF density.

 **********************************************************************

 Orbital symmetries:
       Occupied  (A) (A) (A) (A) (A) (A) (A) (A) (A) (A) (A) (A)
                 (A) (A) (A) (A) (A) (A) (A) (A) (A) (A) (A) (A)
                 (A) (A) (A) (A) (A) (A) (A) (A) (A) (A) (A) (A)
                 (A) (A) (A) (A) (A) (A) (A) (A) (A) (A) (A) (A)
                 (A) (A) (A) (A) (A) (A) (A) (A) (A) (A) (A) (A)
                 (A) (A) (A) (A) (A) (A) (A) (A) (A) (A) (A) (A)
                 (A) (A) (A) (A) (A) (A) (A) (A) (A) (A) (A) (A)
                 (A) (A) (A) (A) (A) (A) (A) (A) (A) (A) (A) (A)
                 (A) (A) (A) (A) (A) (A) (A) (A) (A) (A) (A) (A)
                 (A) (A) (A) (A) (A) (A)
       Virtual   (A) (A) (A) (A) (A) (A) (A) (A) (A) (A) (A) (A)
                 (A) (A) (A) (A) (A) (A) (A) (A) (A) (A) (A) (A)
                 (A) (A) (A) (A) (A) (A) (A) (A) (A) (A) (A) (A)
                 (A) (A) (A) (A) (A) (A) (A) (A) (A) (A) (A) (A)
                 (A) (A) (A) (A) (A) (A) (A) (A) (A) (A) (A) (A)
                 (A) (A) (A) (A) (A) (A) (A) (A) (A) (A) (A) (A)
                 (A) (A) (A) (A) (A) (A) (A) (A) (A) (A) (A) (A)
                 (A) (A) (A) (A) (A) (A) (A) (A) (A) (A) (A) (A)
                 (A) (A) (A) (A) (A) (A) (A) (A) (A) (A) (A) (A)
                 (A) (A) (A) (A) (A) (A) (A) (A) (A) (A) (A) (A)
                 (A) (A) (A) (A) (A) (A) (A) (A) (A) (A) (A) (A)
                 (A) (A) (A) (A) (A) (A) (A) (A) (A) (A) (A) (A)
                 (A) (A) (A) (A) (A) (A) (A) (A) (A) (A) (A) (A)
                 (A) (A) (A) (A) (A) (A) (A) (A) (A) (A) (A) (A)
                 (A) (A) (A) (A) (A) (A) (A) (A) (A) (A) (A) (A)
                 (A) (A) (A) (A) (A) (A) (A) (A) (A) (A) (A) (A)
                 (A) (A) (A) (A) (A) (A) (A) (A) (A) (A) (A) (A)
                 (A) (A) (A) (A) (A) (A) (A) (A) (A) (A) (A) (A)
                 (A) (A) (A) (A) (A) (A) (A) (A) (A) (A) (A) (A)
                 (A) (A) (A) (A) (A) (A) (A) (A) (A) (A) (A) (A)
                 (A) (A) (A) (A) (A) (A) (A) (A) (A) (A) (A) (A)
                 (A) (A) (A) (A) (A) (A) (A) (A) (A) (A) (A) (A)
                 (A) (A) (A) (A) (A) (A) (A) (A) (A) (A) (A) (A)
                 (A) (A) (A) (A) (A) (A) (A) (A) (A) (A) (A) (A)
                 (A) (A) (A) (A) (A) (A) (A) (A) (A) (A) (A) (A)
                 (A) (A) (A) (A) (A) (A) (A) (A) (A) (A) (A) (A)
                 (A) (A) (A) (A) (A) (A) (A) (A) (A) (A) (A) (A)
                 (A) (A) (A) (A) (A) (A) (A) (A) (A) (A) (A) (A)
                 (A) (A) (A) (A) (A) (A) (A) (A) (A) (A) (A) (A)
                 (A) (A) (A) (A) (A) (A) (A) (A) (A) (A) (A) (A)
                 (A) (A) (A) (A) (A) (A) (A) (A) (A) (A) (A) (A)
                 (A) (A) (A) (A) (A) (A) (A) (A) (A) (A) (A) (A)
                 (A) (A) (A) (A)
 The electronic state is 1-A.
 Alpha  occ. eigenvalues --  -92.20947 -20.63848 -20.62613 -20.54770 -20.54544
 Alpha  occ. eigenvalues --  -15.64341 -15.62061 -15.59938 -15.57236 -15.55883
 Alpha  occ. eigenvalues --  -15.55404 -11.38167 -11.37318 -11.34603 -11.32030
 Alpha  occ. eigenvalues --  -11.31943 -11.31808 -11.30744 -11.29052 -11.28718
 Alpha  occ. eigenvalues --  -11.28605 -11.25928 -11.25917 -11.25787 -11.23654
 Alpha  occ. eigenvalues --  -11.23208 -11.22768 -11.22522 -11.22454 -11.22122
 Alpha  occ. eigenvalues --   -9.17905  -6.86501  -6.86485  -6.86423  -1.46602
 Alpha  occ. eigenvalues --   -1.45323  -1.44216  -1.40852  -1.35818  -1.32465
 Alpha  occ. eigenvalues --   -1.25488  -1.20195  -1.19171  -1.18164  -1.16389
 Alpha  occ. eigenvalues --   -1.12381  -1.07623  -1.05055  -1.04611  -1.03482
 Alpha  occ. eigenvalues --   -1.01230  -0.98282  -0.94515  -0.92070  -0.89318
 Alpha  occ. eigenvalues --   -0.87392  -0.85222  -0.84701  -0.84223  -0.83404
 Alpha  occ. eigenvalues --   -0.81755  -0.80663  -0.77861  -0.76368  -0.75083
 Alpha  occ. eigenvalues --   -0.72689  -0.72100  -0.70751  -0.69890  -0.69454
 Alpha  occ. eigenvalues --   -0.68800  -0.68027  -0.67651  -0.66522  -0.65449
 Alpha  occ. eigenvalues --   -0.65246  -0.64782  -0.64319  -0.63244  -0.62801
 Alpha  occ. eigenvalues --   -0.61456  -0.61116  -0.60733  -0.60567  -0.59362
 Alpha  occ. eigenvalues --   -0.58748  -0.56720  -0.56148  -0.55631  -0.54769
 Alpha  occ. eigenvalues --   -0.53395  -0.52797  -0.51978  -0.50872  -0.50149
 Alpha  occ. eigenvalues --   -0.49669  -0.48955  -0.48800  -0.48632  -0.48013
 Alpha  occ. eigenvalues --   -0.46543  -0.45936  -0.45128  -0.45096  -0.44336
 Alpha  occ. eigenvalues --   -0.43808  -0.43522  -0.43320  -0.42858  -0.39237
 Alpha  occ. eigenvalues --   -0.38727  -0.36600  -0.35229  -0.31199
 Alpha virt. eigenvalues --    0.08593   0.11780   0.12761   0.16864   0.19323
 Alpha virt. eigenvalues --    0.19929   0.20606   0.21870   0.21969   0.22243
 Alpha virt. eigenvalues --    0.22720   0.23922   0.24355   0.25461   0.26207
 Alpha virt. eigenvalues --    0.27078   0.27377   0.27713   0.27907   0.28117
 Alpha virt. eigenvalues --    0.28994   0.30377   0.30477   0.30780   0.31484
 Alpha virt. eigenvalues --    0.31687   0.32289   0.32429   0.33170   0.33411
 Alpha virt. eigenvalues --    0.33603   0.34237   0.34745   0.36102   0.36868
 Alpha virt. eigenvalues --    0.37254   0.37803   0.38993   0.39783   0.40077
 Alpha virt. eigenvalues --    0.40562   0.40768   0.41932   0.42634   0.43400
 Alpha virt. eigenvalues --    0.44255   0.44787   0.46006   0.47090   0.48421
 Alpha virt. eigenvalues --    0.48860   0.50621   0.51415   0.52292   0.52922
 Alpha virt. eigenvalues --    0.53554   0.54304   0.55358   0.56012   0.56835
 Alpha virt. eigenvalues --    0.57715   0.59198   0.60507   0.63827   0.66413
 Alpha virt. eigenvalues --    0.66783   0.67272   0.70734   0.70961   0.71185
 Alpha virt. eigenvalues --    0.71899   0.73667   0.73723   0.74108   0.74646
 Alpha virt. eigenvalues --    0.74984   0.75404   0.76027   0.76512   0.77680
 Alpha virt. eigenvalues --    0.78159   0.78689   0.79665   0.80107   0.80768
 Alpha virt. eigenvalues --    0.80793   0.82335   0.83009   0.83178   0.83750
 Alpha virt. eigenvalues --    0.84093   0.84889   0.85613   0.85780   0.87429
 Alpha virt. eigenvalues --    0.88538   0.88950   0.89396   0.89868   0.90829
 Alpha virt. eigenvalues --    0.90936   0.91499   0.92265   0.92694   0.93843
 Alpha virt. eigenvalues --    0.94573   0.96425   0.97606   0.97934   0.98468
 Alpha virt. eigenvalues --    0.99072   0.99500   1.00593   1.01094   1.01682
 Alpha virt. eigenvalues --    1.02081   1.02473   1.03140   1.03875   1.04216
 Alpha virt. eigenvalues --    1.05245   1.05898   1.06413   1.06927   1.07192
 Alpha virt. eigenvalues --    1.07723   1.09220   1.09825   1.10040   1.10247
 Alpha virt. eigenvalues --    1.11517   1.12165   1.12867   1.13026   1.13043
 Alpha virt. eigenvalues --    1.13615   1.13858   1.14249   1.14371   1.14780
 Alpha virt. eigenvalues --    1.15160   1.15264   1.16432   1.17097   1.17523
 Alpha virt. eigenvalues --    1.17808   1.18023   1.18135   1.19038   1.19307
 Alpha virt. eigenvalues --    1.20004   1.20567   1.21549   1.21880   1.22317
 Alpha virt. eigenvalues --    1.22647   1.24055   1.24740   1.25641   1.25884
 Alpha virt. eigenvalues --    1.26321   1.26379   1.28718   1.30109   1.30886
 Alpha virt. eigenvalues --    1.31929   1.32463   1.33019   1.33750   1.34253
 Alpha virt. eigenvalues --    1.35058   1.35928   1.36068   1.37198   1.38311
 Alpha virt. eigenvalues --    1.39576   1.41764   1.42808   1.43064   1.44145
 Alpha virt. eigenvalues --    1.45021   1.46965   1.48240   1.48791   1.50437
 Alpha virt. eigenvalues --    1.51975   1.52341   1.53214   1.54747   1.55679
 Alpha virt. eigenvalues --    1.56865   1.57593   1.58057   1.59050   1.59836
 Alpha virt. eigenvalues --    1.61828   1.63568   1.64413   1.64915   1.65896
 Alpha virt. eigenvalues --    1.66747   1.67053   1.67904   1.69195   1.69921
 Alpha virt. eigenvalues --    1.70910   1.72480   1.72951   1.73173   1.73739
 Alpha virt. eigenvalues --    1.76000   1.78755   1.79970   1.80866   1.81466
 Alpha virt. eigenvalues --    1.81526   1.82495   1.85832   1.87143   1.88162
 Alpha virt. eigenvalues --    1.89174   1.91300   1.92014   1.92992   1.95881
 Alpha virt. eigenvalues --    1.96716   1.97694   1.97950   1.99376   1.99852
 Alpha virt. eigenvalues --    2.00590   2.01938   2.03096   2.03955   2.05586
 Alpha virt. eigenvalues --    2.06041   2.07236   2.07929   2.09055   2.10494
 Alpha virt. eigenvalues --    2.11915   2.12366   2.12645   2.12941   2.13272
 Alpha virt. eigenvalues --    2.15302   2.15759   2.16071   2.16752   2.19162
 Alpha virt. eigenvalues --    2.20368   2.21024   2.21884   2.22408   2.23411
 Alpha virt. eigenvalues --    2.23832   2.24384   2.25399   2.26961   2.27741
 Alpha virt. eigenvalues --    2.28488   2.29674   2.30523   2.30768   2.32293
 Alpha virt. eigenvalues --    2.32866   2.33553   2.34195   2.35863   2.36705
 Alpha virt. eigenvalues --    2.38343   2.39609   2.40017   2.41035   2.41670
 Alpha virt. eigenvalues --    2.42016   2.43127   2.43471   2.44445   2.44650
 Alpha virt. eigenvalues --    2.44911   2.45933   2.46877   2.49368   2.50461
 Alpha virt. eigenvalues --    2.51392   2.52417   2.53272   2.54122   2.55041
 Alpha virt. eigenvalues --    2.55990   2.56541   2.59015   2.59164   2.60125
 Alpha virt. eigenvalues --    2.63058   2.63991   2.64847   2.65400   2.65785
 Alpha virt. eigenvalues --    2.66902   2.67896   2.68577   2.69060   2.70576
 Alpha virt. eigenvalues --    2.71588   2.72822   2.73808   2.74513   2.74905
 Alpha virt. eigenvalues --    2.75560   2.75850   2.80031   2.81142   2.82223
 Alpha virt. eigenvalues --    2.84224   2.84857   2.88474   2.88971   2.89545
 Alpha virt. eigenvalues --    2.91406   2.92847   2.93305   2.93988   2.96879
 Alpha virt. eigenvalues --    2.98078   2.99005   2.99295   2.99722   3.00811
 Alpha virt. eigenvalues --    3.03120   3.04343   3.04465   3.06167   3.07369
 Alpha virt. eigenvalues --    3.09153   3.10558   3.13120   3.13846   3.14816
 Alpha virt. eigenvalues --    3.15362   3.16183   3.16742   3.19923   3.20869
 Alpha virt. eigenvalues --    3.21352   3.28103   3.30008   3.32318   3.34685
 Alpha virt. eigenvalues --    3.37489   3.44157   3.49653   3.56512   3.61565
 Alpha virt. eigenvalues --    3.75213   3.80742   3.89558   4.11988   4.30420
 Alpha virt. eigenvalues --    4.40941   4.41283   4.41822   4.43959   4.46689
 Alpha virt. eigenvalues --    4.48928   4.51786   4.54879   4.56401   4.58825
 Alpha virt. eigenvalues --    4.61720   4.63155   4.67709   4.69628   4.70674
 Alpha virt. eigenvalues --    4.72476   4.74402   4.78605   4.85913   4.87936
 Alpha virt. eigenvalues --    4.91608   4.95764   4.96509   5.00194   5.08158
 Alpha virt. eigenvalues --    5.11205   5.21341   5.24420
          Condensed to atoms (all electrons):
 Mulliken charges:
               1
     1  C    0.878166
     2  C    0.260301
     3  C   -0.020191
     4  C   -0.158290
     5  C   -0.325465
     6  C   -0.316510
     7  C   -0.306586
     8  C   -0.316930
     9  C   -0.331220
    10  C   -0.149801
    11  C   -0.392169
    12  C    0.509450
    13  C   -0.317696
    14  N   -0.783031
    15  C    0.783354
    16  O   -0.631884
    17  C    0.042379
    18  N   -0.553592
    19  N   -0.771914
    20  C    0.642674
    21  N   -0.726620
    22  N   -0.866469
    23  C    0.333016
    24  C   -0.246173
    25  H    0.228765
    26  H    0.201864
    27  H    0.177583
    28  H    0.195988
    29  H    0.141703
    30  H    0.177856
    31  H    0.166115
    32  H    0.153601
    33  H    0.143185
    34  H    0.170407
    35  H    0.163607
    36  H    0.154780
    37  H    0.176201
    38  H    0.137341
    39  H    0.252911
    40  H    0.418815
    41  H    0.428276
    42  H    0.220888
    43  S    1.627914
    44  O   -0.671834
    45  O   -0.678017
    46  H    0.382370
    47  N   -0.957712
    48  H    0.411852
    49  O   -0.657413
    50  C   -0.246984
    51  H    0.206313
    52  H    0.192753
    53  H    0.176829
    54  H    0.269240
 Sum of Mulliken charges =  -0.00000
 Mulliken charges with hydrogens summed into heavy atoms:
               1
     1  C    0.878166
     2  C    0.489066
     3  C    0.359257
     4  C    0.037698
     5  C   -0.005905
     6  C    0.003205
     7  C    0.007006
     8  C    0.001457
     9  C   -0.017678
    10  C    0.119439
    11  C   -0.392169
    12  C    0.509450
    13  C   -0.064785
    14  N   -0.783031
    15  C    0.783354
    16  O   -0.631884
    17  C    0.042379
    18  N   -0.553592
    19  N   -0.353099
    20  C    0.642674
    21  N   -0.726620
    22  N   -0.438193
    23  C    0.333016
    24  C   -0.025285
    43  S    1.627914
    44  O   -0.671834
    45  O   -0.678017
    47  N   -0.163490
    49  O   -0.657413
    50  C    0.328912
 APT charges:
               1
     1  C   -0.201543
     2  C   -0.442831
     3  C    0.040278
     4  C   -0.771238
     5  C   -0.367201
     6  C   -1.682900
     7  C   -1.122527
     8  C   -1.618607
     9  C   -0.297125
    10  C   -0.582940
    11  C   -0.150231
    12  C   -0.033741
    13  C   -0.580383
    14  N   -0.986609
    15  C    0.220899
    16  O   -0.275517
    17  C   -0.365818
    18  N   -0.933938
    19  N   -0.944317
    20  C    0.785754
    21  N   -0.253123
    22  N   -0.915310
    23  C   -0.082933
    24  C   -0.574844
    25  H    1.508081
    26  H    0.280174
    27  H    0.118814
    28  H    0.725735
    29  H    0.078345
    30  H    0.535539
    31  H    0.623182
    32  H    0.696199
    33  H    0.091977
    34  H    1.062976
    35  H    0.605579
    36  H    0.714188
    37  H    0.455186
    38  H    0.086830
    39  H    0.253048
    40  H    1.359800
    41  H    1.107671
    42  H    0.790798
    43  S    0.250832
    44  O    0.025912
    45  O   -0.053621
    46  H    0.029560
    47  N   -0.545023
    48  H    0.399982
    49  O   -0.321117
    50  C   -0.970940
    51  H    0.644165
    52  H    0.407184
    53  H    0.105991
    54  H    1.069700
 Sum of APT charges =  -0.00000
 APT charges with hydrogens summed into heavy atoms:
               1
     1  C   -0.201543
     2  C    1.065250
     3  C    0.439266
     4  C   -0.045503
     5  C    0.246683
     6  C   -0.363519
     7  C    0.032426
     8  C   -0.298840
     9  C    0.244891
    10  C    0.486760
    11  C   -0.150231
    12  C   -0.033741
    13  C   -0.327336
    14  N   -0.986609
    15  C    0.220899
    16  O   -0.275517
    17  C   -0.365818
    18  N   -0.933938
    19  N    0.415483
    20  C    0.785754
    21  N   -0.253123
    22  N    0.192361
    23  C   -0.082933
    24  C    0.215954
    43  S    0.250832
    44  O    0.025912
    45  O   -0.053621
    47  N   -0.115481
    49  O   -0.321117
    50  C    0.186399
 Electronic spatial extent (au):  <R**2>=          15155.3420
 Charge=             -0.0000 electrons
 Dipole moment (field-independent basis, Debye):
    X=              8.6779    Y=             -2.0431    Z=              2.5632  Tot=              9.2763
 Quadrupole moment (field-independent basis, Debye-Ang):
   XX=           -232.9494   YY=           -158.1025   ZZ=           -185.2239
   XY=            -34.1743   XZ=              5.3205   YZ=              2.4358
 Traceless Quadrupole moment (field-independent basis, Debye-Ang):
   XX=            -40.8575   YY=             33.9895   ZZ=              6.8680
   XY=            -34.1743   XZ=              5.3205   YZ=              2.4358
 Octapole moment (field-independent basis, Debye-Ang**2):
  XXX=            490.5699  YYY=            -86.7547  ZZZ=             17.7173  XYY=             55.6890
  XXY=            -98.0439  XXZ=             55.2726  XZZ=             15.1078  YZZ=              8.2824
  YYZ=            -10.2512  XYZ=            -37.3451
 Hexadecapole moment (field-independent basis, Debye-Ang**3):
 XXXX=         -12834.4312 YYYY=          -6939.5388 ZZZZ=          -1061.4884 XXXY=          -1483.4908
 XXXZ=            221.6737 YYYX=           -188.9532 YYYZ=             44.5799 ZZZX=            -44.6309
 ZZZY=              3.8484 XXYY=          -2790.5923 XXZZ=          -2285.1947 YYZZ=          -1406.3321
[...]
 1429 Fit      -0.038990
 1430 Fit      -0.028628
 1431 Fit      -0.044132
 1432 Fit      -0.045575
 1433 Fit      -0.039399
 1434 Fit      -0.033686
 1435 Fit      -0.036116
 1436 Fit      -0.040651
 1437 Fit      -0.033677
 1438 Fit      -0.026033
 1439 Fit      -0.015621
 1440 Fit      -0.007964
 1441 Fit      -0.013742
 1442 Fit      -0.031009
 1443 Fit      -0.024610
 1444 Fit       0.017294
 1445 Fit       0.021419
 1446 Fit       0.022299
 1447 Fit       0.017909
 1448 Fit       0.008628
 1449 Fit      -0.002113
 1450 Fit       0.001576
 1451 Fit       0.007006
 1452 Fit       0.017810
 1453 Fit       0.021137
 1454 Fit       0.017308
 1455 Fit       0.008642
 1456 Fit       0.015327
 1457 Fit      -0.015829
 1458 Fit      -0.034555
 1459 Fit      -0.011028
 1460 Fit      -0.027428
 1461 Fit      -0.038494
 1462 Fit      -0.002039
 1463 Fit      -0.016857
 1464 Fit      -0.028805
 1465 Fit      -0.036422
 1466 Fit       0.019844
 1467 Fit       0.019740
 1468 Fit       0.010904
 1469 Fit      -0.002688
 1470 Fit      -0.016050
 1471 Fit      -0.026116
 1472 Fit      -0.035086
 1473 Fit      -0.006893
 1474 Fit      -0.017212
 1475 Fit       0.004524
 1476 Fit       0.010351
 1477 Fit      -0.000131
 1478 Fit       0.010142
 1479 Fit       0.014037
 1480 Fit       0.007101
 1481 Fit       0.013656
 1482 Fit       0.018302
 1483 Fit       0.003297
 1484 Fit      -0.001028
 1485 Fit       0.001713
 1486 Fit      -0.001745
 1487 Fit       0.004306
 1488 Fit       0.012313
 1489 Fit       0.010057
 1490 Fit       0.016848
 1491 Fit       0.008258
 1492 Fit       0.007254
 1493 Fit      -0.011123
 1494 Fit       0.013163
 1495 Fit       0.016020
 1496 Fit       0.012361
 1497 Fit       0.007944
 1498 Fit       0.012744
 1499 Fit       0.009653
 1500 Fit       0.004098
 1501 Fit      -0.002786
 1502 Fit       0.011771
 1503 Fit       0.010171
 1504 Fit       0.006075
 1505 Fit      -0.002356
 1506 Fit       0.007309
 1507 Fit       0.008409
 1508 Fit       0.008698
 1509 Fit       0.005865
 1510 Fit       0.006658
 1511 Fit      -0.004524
 1512 Fit       0.002077
 1513 Fit      -0.001080
 1514 Fit      -0.023090
 1515 Fit      -0.012673
 1516 Fit      -0.002044
 1517 Fit      -0.011285
 1518 Fit      -0.022943
 1519 Fit      -0.012761
 1520 Fit       0.015881
 1521 Fit       0.012143
 1522 Fit       0.017027
 1523 Fit       0.008290
 1524 Fit       0.013519
 1525 Fit      -0.021762
 1526 Fit      -0.005912
 1527 Fit      -0.020149
 1528 Fit      -0.002986
 1529 Fit       0.006201
 1530 Fit      -0.011747
 1531 Fit       0.002389
 1532 Fit       0.011769
 1533 Fit      -0.003234
 1534 Fit       0.007662
 1535 Fit      -0.012087
 1536 Fit       0.002310
 1537 Fit       0.001875
 1538 Fit       0.002260
 1539 Fit       0.002867
 1540 Fit      -0.002293
 1541 Fit      -0.003322
 1542 Fit       0.003331
 1543 Fit       0.007496
 1544 Fit       0.009331
 1545 Fit       0.006884
 1546 Fit       0.016742
 1547 Fit       0.027589
 1548 Fit       0.000538
 1549 Fit       0.004893
 1550 Fit       0.027191
 1551 Fit       0.017424
 1552 Fit       0.008085
 1553 Fit       0.001837
 1554 Fit       0.014710
 1555 Fit       0.003420
 1556 Fit       0.011646
 1557 Fit       0.008630
 1558 Fit       0.003950
 1559 Fit       0.003435
 1560 Fit       0.004644
 1561 Fit       0.006194
 1562 Fit       0.002147
 1563 Fit       0.002861
 1564 Fit       0.002836
 1565 Fit       0.002031
 1566 Fit       0.002437
 1567 Fit       0.003513
 1568 Fit       0.002295
 1569 Fit       0.000461
 1570 Fit       0.001664
 1571 Fit      -0.001902
 1572 Fit      -0.001213
 1573 Fit      -0.004152
 1574 Fit      -0.000839
 1575 Fit      -0.001808
 1576 Fit      -0.011593
 1577 Fit      -0.012103
 1578 Fit      -0.010453
 1579 Fit      -0.005262
 1580 Fit      -0.000252
 1581 Fit       0.004372
 1582 Fit       0.006969
 1583 Fit       0.001370
 1584 Fit      -0.002039
 1585 Fit       0.002262
 1586 Fit      -0.012150
 1587 Fit       0.004217
 1588 Fit       0.008287
 1589 Fit      -0.003707
 1590 Fit      -0.001440
 1591 Fit       0.001530
 1592 Fit      -0.000233
 1593 Fit       0.000423
 1594 Fit      -0.000376
 1595 Fit       0.001936
 1596 Fit       0.001358
 1597 Fit       0.002640
 1598 Fit       0.001936
 1599 Fit       0.000189
 1600 Fit      -0.001301
 1601 Fit       0.002717
 1602 Fit      -0.000938
 1603 Fit       0.002985
 1604 Fit       0.002117
 1605 Fit      -0.011883
 1606 Fit      -0.013423
 1607 Fit      -0.011946
 1608 Fit      -0.003970
 1609 Fit      -0.007067
 1610 Fit       0.000059
 1611 Fit      -0.002471
 1612 Fit      -0.001532
 1613 Fit      -0.016404
 1614 Fit      -0.011783
 1615 Fit      -0.011339
 1616 Fit      -0.014248
 1617 Fit      -0.019451
 1618 Fit      -0.005289
 1619 Fit      -0.004447
 1620 Fit      -0.005037
 1621 Fit      -0.009492
 1622 Fit      -0.017033
 1623 Fit      -0.022651
 1624 Fit      -0.003788
 1625 Fit      -0.014400
 1626 Fit      -0.021808
 1627 Fit      -0.025082
 1628 Fit      -0.009499
 1629 Fit      -0.018641
 1630 Fit      -0.022883
 1631 Fit      -0.024545
 1632 Fit      -0.003733
 1633 Fit      -0.014158
 1634 Fit      -0.018705
 1635 Fit      -0.019270
 1636 Fit      -0.009291
 1637 Fit      -0.013409
 1638 Fit      -0.012501
 1639 Fit      -0.004460
 1640 Fit      -0.007258
 1641 Fit      -0.000418
 1642 Fit       0.006783
 1643 Fit       0.011108
 1644 Fit       0.006848
 1645 Fit       0.013841
 1646 Fit       0.019423
 1647 Fit       0.024030
 1648 Fit       0.018379
 1649 Fit       0.034236
 1650 Fit       0.030807
 1651 Fit       0.021219
 1652 Fit       0.011989
 1653 Fit       0.006538
 1654 Fit       0.013407
 1655 Fit       0.016753
 1656 Fit       0.009977
 1657 Fit       0.016917
 1658 Fit       0.002803
 1659 Fit       0.004832
 1660 Fit       0.003028
 1661 Fit       0.001001
 1662 Fit       0.002511
 1663 Fit       0.001716
 1664 Fit       0.000796
 1665 Fit       0.005380
 1666 Fit       0.002266
 1667 Fit       0.004952
 1668 Fit       0.005297
 1669 Fit       0.006577
 1670 Fit       0.005955
 1671 Fit       0.010005
 1672 Fit       0.009757
 1673 Fit       0.005545
 1674 Fit       0.014263
 1675 Fit       0.001961
 1676 Fit       0.007469
 1677 Fit       0.003429
 1678 Fit       0.005061
 1679 Fit       0.002606
 1680 Fit       0.001017
 1681 Fit       0.004089
 1682 Fit       0.001698
 1683 Fit       0.000522
 1684 Fit       0.001786
 1685 Fit       0.005183
 1686 Fit       0.013688
 1687 Fit       0.002039
 1688 Fit       0.010037
 1689 Fit       0.005088
 1690 Fit       0.004561
 1691 Fit       0.010782
 1692 Fit      -0.001727
 1693 Fit      -0.008799
 1694 Fit      -0.004406
 1695 Fit      -0.000030
 1696 Fit      -0.006382
 1697 Fit      -0.001466
 1698 Fit       0.000800
 1699 Fit       0.005951
 1700 Fit       0.005914
 1701 Fit       0.002309
 1702 Fit       0.000122
 1703 Fit       0.007613
 1704 Fit       0.005622
 1705 Fit       0.001827
 1706 Fit       0.006228
 1707 Fit       0.009503
 1708 Fit       0.018443
 1709 Fit       0.015908
 1710 Fit       0.010347
 1711 Fit       0.026510
 1712 Fit       0.023800
 1713 Fit       0.020839
 1714 Fit       0.016688
 1715 Fit       0.010101
 1716 Fit       0.034205
 1717 Fit       0.028077
 1718 Fit       0.023889
 1719 Fit       0.019486
 1720 Fit       0.013529
 1721 Fit       0.032438
 1722 Fit       0.025543
 1723 Fit       0.019773
 1724 Fit       0.028801
 1725 Fit       0.006611
 1726 Fit       0.009661
 1727 Fit       0.010376
 1728 Fit       0.007360
 1729 Fit       0.005713
 1730 Fit       0.007750
 1731 Fit       0.005986
 1732 Fit       0.003883
 1733 Fit       0.009945
 1734 Fit       0.006729
 1735 Fit       0.006972
 1736 Fit      -0.004396
 1737 Fit       0.002095
 1738 Fit       0.005680
 1739 Fit      -0.001851
 1740 Fit       0.003731
 1741 Fit       0.006745
 1742 Fit       0.002046
 1743 Fit       0.006797
 1744 Fit       0.013208
 1745 Fit       0.013716
 1746 Fit       0.011311
 1747 Fit       0.012240
 1748 Fit       0.007084
 1749 Fit       0.007816
 1750 Fit       0.008838
 1751 Fit       0.008617
 1752 Fit       0.008093
 1753 Fit       0.008204
 1754 Fit       0.008320
 1755 Fit       0.006748
 1756 Fit       0.009362
 1757 Fit       0.010270
 1758 Fit       0.009286
 1759 Fit       0.008984
 1760 Fit       0.011314
 1761 Fit       0.004507
 1762 Fit       0.007171
 1763 Fit       0.004147
 1764 Fit       0.004704
 1765 Fit       0.005420
 1766 Fit       0.006086
 1767 Fit       0.009534
 1768 Fit       0.003727
 1769 Fit       0.004662
 1770 Fit       0.005598
 1771 Fit       0.006429
 1772 Fit       0.007579
 1773 Fit       0.004619
 1774 Fit       0.005762
 1775 Fit       0.006914
 1776 Fit       0.008694
 1777 Fit       0.005068
 1778 Fit       0.006528
 1779 Fit       0.008326
 1780 Fit       0.005395
 1781 Fit       0.004826
 1782 Fit       0.004020
 1783 Fit       0.005834
 1784 Fit       0.005364
 1785 Fit       0.004617
 1786 Fit       0.003856
 1787 Fit       0.006658
 1788 Fit       0.006124
 1789 Fit       0.005519
 1790 Fit       0.005044
 1791 Fit       0.007261
 1792 Fit       0.006680
 1793 Fit       0.002632
 1794 Fit       0.004042
 1795 Fit       0.003869
 1796 Fit       0.002918
 1797 Fit       0.005763
 1798 Fit       0.005821
 1799 Fit       0.005017
 1800 Fit       0.003444
 1801 Fit       0.004817
 1802 Fit       0.008166
 1803 Fit       0.008389
 1804 Fit       0.005645
 1805 Fit       0.007043
 1806 Fit       0.002733
 1807 Fit       0.002859
 1808 Fit       0.003506
 1809 Fit       0.003638
 1810 Fit       0.002716
 1811 Fit       0.003336
 1812 Fit       0.004163
 1813 Fit       0.004370
 1814 Fit       0.003925
 1815 Fit       0.003096
 1816 Fit       0.003795
 1817 Fit       0.004456
 1818 Fit       0.004536
 1819 Fit       0.004242
 1820 Fit       0.003989
 1821 Fit       0.004216
 1822 Fit       0.004563
 1823 Fit       0.004396
 1824 Fit       0.003420
 1825 Fit       0.003644
 1826 Fit       0.003565
 1827 Fit       0.003201
 1828 Fit       0.002910
 1829 Fit       0.002983
 1830 Fit       0.004430
 1831 Fit       0.003675
 1832 Fit       0.002901
 1833 Fit       0.002420
 1834 Fit       0.002054
 1835 Fit       0.001805
 1836 Fit       0.001985
 1837 Fit       0.000911
 1838 Fit       0.000451
 1839 Fit       0.000178
 1840 Fit       0.000085
 1841 Fit       0.000428
 1842 Fit       0.001918
 1843 Fit       0.000101
 1844 Fit       0.001869
 1845 Fit       0.003247
 1846 Fit       0.004457
 1847 Fit      -0.002949
 1848 Fit       0.000029
 1849 Fit       0.002374
 1850 Fit       0.004073
 1851 Fit       0.005647
 1852 Fit      -0.003446
 1853 Fit       0.000953
 1854 Fit       0.003954
 1855 Fit      -0.003201
 1856 Fit      -0.002830
 1857 Fit      -0.007453
 1858 Fit      -0.009289
 1859 Fit      -0.008182
 1860 Fit      -0.005628
 1861 Fit      -0.020291
 1862 Fit      -0.012422
 1863 Fit      -0.005922
 1864 Fit      -0.019707
 1865 Fit       0.006045
 1866 Fit       0.003954
 1867 Fit       0.007903
 1868 Fit       0.005510
 1869 Fit       0.002755
 1870 Fit       0.011041
 1871 Fit       0.007597
 1872 Fit       0.003935
 1873 Fit       0.000024
 1874 Fit       0.004879
 1875 Fit       0.026856
 1876 Fit       0.031439
 1877 Fit       0.035139
 1878 Fit       0.022079
 1879 Fit       0.029628
 1880 Fit       0.033671
 1881 Fit       0.036171
 1882 Fit       0.038136
 1883 Fit       0.026329
 1884 Fit       0.032143
 1885 Fit       0.034617
 1886 Fit       0.034640
 1887 Fit       0.021286
 1888 Fit       0.029245
 1889 Fit       0.030793
 1890 Fit       0.024614
 1891 Fit       0.016618
 1892 Fit       0.022036
 1893 Fit       0.014489
 1894 Fit       0.021214
 1895 Fit       0.011335
 1896 Fit       0.021368
 1897 Fit       0.013032
 1898 Fit       0.016907
 1899 Fit       0.008247
 1900 Fit       0.012135
 1901 Fit       0.017790
 1902 Fit       0.011916
 1903 Fit       0.015049
 1904 Fit       0.019924
 1905 Fit       0.012351
 1906 Fit       0.014065
 1907 Fit       0.017591
 1908 Fit       0.022347
 1909 Fit       0.011831
 1910 Fit       0.015321
 1911 Fit       0.017395
 1912 Fit       0.011715
 1913 Fit      -0.029927
 1914 Fit      -0.021206
 1915 Fit      -0.042364
 1916 Fit      -0.037868
 1917 Fit      -0.028998
 1918 Fit      -0.018764
 1919 Fit      -0.038179
 1920 Fit      -0.040282
 1921 Fit      -0.042477
 1922 Fit      -0.019097
 1923 Fit      -0.035931
 1924 Fit      -0.039314
 1925 Fit      -0.034238
 1926 Fit      -0.023064
 1927 Fit      -0.032280
 1928 Fit      -0.026810
 1929 Fit      -0.030576
 1930 Fit      -0.037848
 1931 Fit      -0.035078
 1932 Fit      -0.029686
 1933 Fit      -0.021207
 1934 Fit      -0.020590
 1935 Fit      -0.030357
 1936 Fit      -0.035752
 1937 Fit      -0.038039
 1938 Fit      -0.041564
 1939 Fit      -0.038666
 1940 Fit      -0.033071
 1941 Fit      -0.026112
 1942 Fit      -0.018922
 1943 Fit      -0.030952
 1944 Fit      -0.037358
 1945 Fit      -0.040473
 1946 Fit      -0.041908
 1947 Fit      -0.041930
 1948 Fit      -0.037520
 1949 Fit      -0.029696
 1950 Fit      -0.043759
 1951 Fit      -0.039385
 1952 Fit      -0.035751
 1953 Fit      -0.029145
 1954 Fit      -0.040681
 1955 Fit      -0.040966
 1956 Fit      -0.036276
 1957 Fit      -0.032249
 1958 Fit      -0.024159
 1959 Fit      -0.033088
 1960 Fit      -0.036852
 1961 Fit      -0.037794
 1962 Fit      -0.032345
 1963 Fit      -0.027973
 1964 Fit      -0.018833
 1965 Fit      -0.019340
 1966 Fit      -0.030033
 1967 Fit      -0.033259
 1968 Fit      -0.027135
 1969 Fit      -0.020811
 1970 Fit      -0.012390
 1971 Fit      -0.006562
 1972 Fit      -0.011248
 1973 Fit      -0.024615
 1974 Fit      -0.019279
 1975 Fit       0.014198
 1976 Fit       0.017562
 1977 Fit       0.018074
 1978 Fit       0.014660
 1979 Fit       0.007754
 1980 Fit      -0.000488
 1981 Fit      -0.008702
 1982 Fit       0.000667
 1983 Fit       0.004876
 1984 Fit       0.013554
 1985 Fit       0.016466
 1986 Fit       0.013405
 1987 Fit       0.006384
 1988 Fit       0.011301
 1989 Fit      -0.014952
 1990 Fit      -0.031434
 1991 Fit      -0.013935
 1992 Fit      -0.026193
 1993 Fit      -0.035947
 1994 Fit       0.005378
 1995 Fit      -0.006636
 1996 Fit      -0.018242
 1997 Fit      -0.027623
 1998 Fit      -0.034377
 1999 Fit       0.014035
 2000 Fit       0.006619
 2001 Fit      -0.003818
 2002 Fit      -0.014325
 2003 Fit      -0.023124
 2004 Fit      -0.029991
 2005 Fit       0.015882
 2006 Fit       0.017682
 2007 Fit       0.014619
 2008 Fit       0.006899
 2009 Fit      -0.002956
 2010 Fit      -0.012425
 2011 Fit      -0.020454
 2012 Fit      -0.029697
 2013 Fit      -0.004026
 2014 Fit      -0.013209
 2015 Fit       0.007607
 2016 Fit      -0.001938
 2017 Fit       0.009220
 2018 Fit       0.008929
 2019 Fit       0.012661
 2020 Fit       0.011149
 2021 Fit       0.004216
 2022 Fit       0.004993
 2023 Fit       0.008714
 2024 Fit       0.001924
 2025 Fit       0.001770
 2026 Fit       0.007460
 2027 Fit       0.003152
 2028 Fit       0.009973
 2029 Fit       0.004785
 2030 Fit       0.008060
 2031 Fit       0.012878
 2032 Fit       0.014243
 2033 Fit       0.011392
 2034 Fit       0.006500
 2035 Fit       0.006033
 2036 Fit       0.002880
 2037 Fit       0.003991
 2038 Fit      -0.010294
 2039 Fit      -0.002393
 2040 Fit      -0.009428
 2041 Fit       0.014197
 2042 Fit       0.010607
 2043 Fit       0.006765
 2044 Fit       0.011181
 2045 Fit       0.008052
 2046 Fit       0.003305
 2047 Fit       0.010407
 2048 Fit       0.007861
 2049 Fit       0.003218
 2050 Fit      -0.004614
 2051 Fit       0.009178
 2052 Fit       0.007475
 2053 Fit       0.003273
 2054 Fit       0.006240
 2055 Fit       0.008598
 2056 Fit      -0.003857
 2057 Fit       0.001554
 2058 Fit      -0.000881
 2059 Fit      -0.017169
 2060 Fit      -0.009954
 2061 Fit      -0.001552
 2062 Fit      -0.008279
 2063 Fit      -0.016886
 2064 Fit      -0.011886
 2065 Fit      -0.002370
 2066 Fit       0.010750
 2067 Fit       0.014858
 2068 Fit       0.007765
 2069 Fit       0.012241
 2070 Fit       0.005022
 2071 Fit      -0.007343
 2072 Fit       0.001160
 2073 Fit      -0.018228
 2074 Fit      -0.003781
 2075 Fit       0.005058
 2076 Fit      -0.010593
 2077 Fit       0.001108
 2078 Fit       0.009548
 2079 Fit      -0.003597
 2080 Fit       0.005451
 2081 Fit      -0.009631
 2082 Fit       0.001287
 -----------------------------------------------------------------
 Leave Link  602 at Thu Jan 30 20:04:25 2025, MaxMem=   104857600 cpu:               0.2 elap:               0.2
 (Enter /home/pb777/GAUSSIAN/g16/l9999.exe)

 Test job not archived.
 1\1\GINC-BUMBU\SP\RHF\6-31G(d)\C19H24N6O4S1\PB777\30-Jan-2025\0\\#P HF
 /6-31G* GEOM(AllCheck) Guess(Read) NoSymm Pop=mk IOp(6/33=2) GFInput G
 FPrint\\Gaussian Calculation\\0,1\C,0,1.4288407303,29.1135551611,6.989
 4162134\C,0,-2.1083880212,31.5526848195,7.6386195131\C,0,-0.4254895422
 ,26.4771403057,9.3860766814\C,0,-1.34182437,25.7254883914,10.331821249
 \C,0,-0.7603676345,24.3402439071,10.6306617172\C,0,-1.6502122873,23.55
 24242925,11.5912191635\C,0,-1.9054118246,24.3294206602,12.8814589233\C
 ,0,-2.4843068731,25.711989345,12.5874926296\C,0,-1.592336298,26.498638
 1939,11.6290643818\C,0,5.5929363125,26.6368182697,6.0447633159\C,0,5.2
 379743251,25.4979236711,6.7643344396\C,0,3.9954963628,25.4485897693,7.
 4014651291\C,0,3.1149813937,26.5197146011,7.3323439721\N,0,0.795406065
 2,28.2344511074,7.7839677848\C,0,-0.4007483354,28.5568861991,8.2619736
 077\O,0,-1.0556789098,27.7176770284,9.05040494\C,0,-0.9824541668,29.79
 18976424,7.9362504023\N,0,-2.1713705567,30.4097131719,8.2602904071\N,0
 ,-0.9454441168,31.7291612742,6.9206932331\C,0,-0.1991244811,30.5982649
 191,7.099724704\N,0,1.0000396188,30.3182025963,6.5992082949\N,0,2.6708
 909316,28.790482847,6.4903207223\C,0,3.4775741257,27.6723890868,6.6223
 429144\C,0,4.7272248612,27.7129814408,5.9762922083\H,0,-2.8758049851,3
 2.3159213593,7.6601150974\H,0,-0.2431183135,25.9069597318,8.4669368011
 \H,0,0.5455770353,26.6836346968,9.8547175409\H,0,-2.3068972896,25.5901
 560312,9.8195782321\H,0,0.2379698686,24.4602963341,11.0803191913\H,0,-
 0.6182005734,23.7788209771,9.69747573\H,0,-1.1936786044,22.5799801794,
 11.8128883925\H,0,-2.6109568987,23.3419205399,11.0992107493\H,0,-0.957
 4081711,24.4432574321,13.4279287623\H,0,-2.5781616526,23.7639555577,13
 .537985906\H,0,-2.6224903009,26.2746577954,13.5188164282\H,0,-3.483048
 4173,25.5993770684,12.1407639709\H,0,-2.0355096765,27.4737617057,11.39
 9434676\H,0,-0.6233383347,26.6964955079,12.1141987429\H,0,2.1472352524
 ,26.4598882283,7.8108133165\H,0,-0.6807073002,32.5296677609,6.36759677
 09\H,0,3.0431059564,29.5378553299,5.921076899\H,0,5.0144379961,28.6000
 871603,5.416829925\S,0,6.3831401546,24.1480394534,6.9099087056\O,0,6.6
 448214274,23.931348371,8.3251315702\O,0,7.4587992515,24.3959943365,5.9
 609933568\H,0,5.4211957163,22.839498841,5.366358929\N,0,5.580306936,22
 .7937193406,6.3682903367\H,0,4.714813074,22.6698983017,6.8899502743\O,
 0,3.6200556421,24.2945672027,8.038900323\C,0,3.6491636365,24.363586290
 7,9.4634563877\H,0,3.261681111,23.408007057,9.8216422457\H,0,4.6763018
 827,24.5023549147,9.8140501996\H,0,3.0089880682,25.1762682988,9.826956
 419\H,0,6.5575201994,26.6622854949,5.5474675721\\Version=ES64L-G16RevA
 .03\HF=-1757.0771877\RMSD=9.342e-09\Dipole=-2.6119682,2.0365088,-0.532
 2458\Quadrupole=-108.5588518,171.4430877,-62.884236,-111.4339322,-38.3
 657859,-6.7165089\PG=C01 [X(C19H24N6O4S1)]\\@


 ... A MOLECULAR SYSTEM ... (PASSES) ... FROM ONE STATE OF EQUILIBRIUM 
 TO ANOTHER ... BY MEANS OF ALL POSSIBLE INTERMEDIATE PATHS, 
 BUT THE PATH MOST ECONOMICAL OF ENERGY WILL BE THE MORE OFTEN TRAVELED.

                      -- HENRY EYRING, 1945
 Job cpu time:       0 days  0 hours  2 minutes 41.1 seconds.
 Elapsed time:       0 days  0 hours  2 minutes 41.7 seconds.
 File lengths (MBytes):  RWF=    133 Int=      0 D2E=      0 Chk=     23 Scr=      1
 Normal termination of Gaussian 16 at Thu Jan 30 20:04:25 2025.
