 Entering Gaussian System, Link 0=/home/pb777/GAUSSIAN/g16/g16
 Initial command:
 /home/pb777/GAUSSIAN/g16/l1.exe "/home/pb777/GAUSSIAN/g16/scratch/Gau-1062585.inp" -scrdir="/home/pb777/GAUSSIAN/g16/scratch/"
 Entering Link 1 = /home/pb777/GAUSSIAN/g16/l1.exe PID=   1062586.
  
 Copyright (c) 1988,1990,1992,1993,1995,1998,2003,2009,2016,
            Gaussian, Inc.  All Rights Reserved.
  
 This is part of the Gaussian(R) 16 program.  It is based on
 the Gaussian(R) 09 system (copyright 2009, Gaussian, Inc.),
 the Gaussian(R) 03 system (copyright 2003, Gaussian, Inc.),
 the Gaussian(R) 98 system (copyright 1998, Gaussian, Inc.),
 the Gaussian(R) 94 system (copyright 1995, Gaussian, Inc.),
 the Gaussian 92(TM) system (copyright 1992, Gaussian, Inc.),
 the Gaussian 90(TM) system (copyright 1990, Gaussian, Inc.),
 the Gaussian 88(TM) system (copyright 1988, Gaussian, Inc.),
 the Gaussian 86(TM) system (copyright 1986, Carnegie Mellon
 University), and the Gaussian 82(TM) system (copyright 1983,
 Carnegie Mellon University). Gaussian is a federally registered
 trademark of Gaussian, Inc.
  
 This software contains proprietary and confidential information,
 including trade secrets, belonging to Gaussian, Inc.
  
 This software is provided under written license and may be
 used, copied, transmitted, or stored only in accord with that
 written license.
  
 The following legend is applicable only to US Government
 contracts under FAR:
  
                    RESTRICTED RIGHTS LEGEND
  
 Use, reproduction and disclosure by the US Government is
 subject to restrictions as set forth in subparagraphs (a)
 and (c) of the Commercial Computer Software - Restricted
 Rights clause in FAR 52.227-19.
  
 Gaussian, Inc.
 340 Quinnipiac St., Bldg. 40, Wallingford CT 06492
  
  
 ---------------------------------------------------------------
 Warning -- This program may not be used in any manner that
 competes with the business of Gaussian, Inc. or will provide
 assistance to any competitor of Gaussian, Inc.  The licensee
 of this program is prohibited from giving any competitor of
 Gaussian, Inc. access to this program.  By using this program,
 the user acknowledges that Gaussian, Inc. is engaged in the
 business of creating and licensing software in the field of
 computational chemistry and represents and warrants to the
 licensee that it is not a competitor of Gaussian, Inc. and that
 it will not use this program in any manner prohibited above.
 ---------------------------------------------------------------
  

 Cite this work as:
 Gaussian 16, Revision A.03,
 M. J. Frisch, G. W. Trucks, H. B. Schlegel, G. E. Scuseria, 
 M. A. Robb, J. R. Cheeseman, G. Scalmani, V. Barone, 
 G. A. Petersson, H. Nakatsuji, X. Li, M. Caricato, A. V. Marenich, 
 J. Bloino, B. G. Janesko, R. Gomperts, B. Mennucci, H. P. Hratchian, 
 J. V. Ortiz, A. F. Izmaylov, J. L. Sonnenberg, D. Williams-Young, 
 F. Ding, F. Lipparini, F. Egidi, J. Goings, B. Peng, A. Petrone, 
 T. Henderson, D. Ranasinghe, V. G. Zakrzewski, J. Gao, N. Rega, 
 G. Zheng, W. Liang, M. Hada, M. Ehara, K. Toyota, R. Fukuda, 
 J. Hasegawa, M. Ishida, T. Nakajima, Y. Honda, O. Kitao, H. Nakai, 
 T. Vreven, K. Throssell, J. A. Montgomery, Jr., J. E. Peralta, 
 F. Ogliaro, M. J. Bearpark, J. J. Heyd, E. N. Brothers, K. N. Kudin, 
 V. N. Staroverov, T. A. Keith, R. Kobayashi, J. Normand, 
 K. Raghavachari, A. P. Rendell, J. C. Burant, S. S. Iyengar, 
 J. Tomasi, M. Cossi, J. M. Millam, M. Klene, C. Adamo, R. Cammi, 
 J. W. Ochterski, R. L. Martin, K. Morokuma, O. Farkas, 
 J. B. Foresman, and D. J. Fox, Gaussian, Inc., Wallingford CT, 2016.
 
 ******************************************
 Gaussian 16:  ES64L-G16RevA.03 25-Dec-2016
                30-Jan-2025 
 ******************************************
 %NPROC=1', f'%MEM=512MB
 Will use up to    1 processors via shared memory.
 %chk=binder_1oiu.antechamber.chk
 ------------------------
 #P HF/6-31G* OPT(CalcFC)
 ------------------------
 1/10=4,18=20,19=15,38=1/1,3;
 2/9=110,12=2,17=6,18=5,40=1/2;
 3/5=1,6=6,7=1,11=9,25=1,30=1,71=2,140=1/1,2,3;
 4//1;
 5/5=2,38=5/2;
 8/6=4,10=90,11=11/1;
 11/6=1,8=1,9=11,15=111,16=1/1,2,10;
 10/6=1,13=1/2;
 6/7=2,8=2,9=2,10=2,28=1/1;
 7/10=1,18=20,25=1/1,2,3,16;
 1/10=4,18=20,19=15/3(2);
 2/9=110/2;
 99//99;
 2/9=110/2;
 3/5=1,6=6,7=1,11=9,25=1,30=1,71=1/1,2,3;
 4/5=5,16=3,69=1/1;
 5/5=2,38=5/2;
 7//1,2,3,16;
 1/18=20,19=15/3(-5);
 2/9=110/2;
 6/7=2,8=2,9=2,10=2,19=2,28=1/1;
 99/9=1/99;
 Leave Link    1 at Thu Jan 30 14:39:50 2025, MaxMem=           0 cpu:               0.0 elap:               0.0
 (Enter /home/pb777/GAUSSIAN/g16/l101.exe)
 --------------------
 Gaussian Calculation
 --------------------
 Symbolic Z-matrix:
 Charge =  0 Multiplicity = 1
 C                     1.422     29.034    6.768 
 C                    -1.45      32.163    8.008 
 C                    -0.582     26.625    8.978 
 C                    -1.25      25.767    10.081 
 C                    -1.355     24.331    9.527 
 C                    -1.653     23.273    10.603 
 C                    -0.781     23.343    11.865 
 C                    -0.712     24.779    12.432 
 C                    -0.388     25.86     11.38 
 C                     4.685     25.756    5.595 
 C                     4.752     25.223    6.886 
 C                     4.103     25.86     7.94 
 C                     3.377     27.026    7.702 
 N                     0.488     28.18     7.498 
 C                    -0.568     28.637    8.086 
 O                    -1.389     27.808    8.752 
 C                    -0.837     30.059    7.987 
 N                    -1.806     31.022    8.425 
 N                    -0.337     32.096    7.318 
 C                     0.012     30.844    7.311 
 N                     1.172     30.278    6.709 
 N                     2.523     28.721    6.157 
 C                     3.288     27.572    6.413 
 C                     3.97      26.941    5.371 
 H                    -1.974     33.085    8.159 
 H                    -0.541     26.055    8.043 
 H                     0.454     26.776    9.31 
 H                    -2.258     26.125    10.296 
 H                    -0.409     24.042    9.063 
 H                    -2.106     24.282    8.736 
 H                    -1.609     22.271    10.176 
 H                    -2.684     23.423    10.916 
 H                     0.23      23.014    11.618 
 H                    -1.152     22.652    12.623 
 H                    -0.027     24.811    13.272 
 H                    -1.687     25.018    12.862 
 H                    -0.474     26.853    11.824 
 H                     0.671     25.729    11.148 
 H                     5.308     24.319    7.077 
 H                     4.154     25.45     8.941 
 H                     2.864     27.501    8.525 
 H                     0.088     32.896    6.844 
 H                     2.972     29.476    5.657 
 H                     3.924     27.361    4.38 
 S                     5.474     24.896    4.238 
 O                     5.456     25.757    3.055 
 O                     4.93      23.536    4.205 
 H                     7.455     25.677    4.901 
 N                     7.114     24.727    4.691 
 H                     7.179     24.161    5.533 
 
 ITRead=  0  0  0  0  0  0  0  0  0  0  0  0  0  0  0  0  0  0  0  0
 ITRead=  0  0  0  0  0  0  0  0  0  0  0  0  0  0  0  0  0  0  0  0
 ITRead=  0  0  0  0  0  0  0  0  0  0
 MicOpt= -1 -1 -1 -1 -1 -1 -1 -1 -1 -1 -1 -1 -1 -1 -1 -1 -1 -1 -1 -1
 MicOpt= -1 -1 -1 -1 -1 -1 -1 -1 -1 -1 -1 -1 -1 -1 -1 -1 -1 -1 -1 -1
 MicOpt= -1 -1 -1 -1 -1 -1 -1 -1 -1 -1
 NAtoms=     50 NQM=       50 NQMF=       0 NMMI=      0 NMMIF=      0
                NMic=       0 NMicF=      0.
                    Isotopes and Nuclear Properties:
 (Nuclear quadrupole moments (NQMom) in fm**2, nuclear magnetic moments (NMagM)
  in nuclear magnetons)

  Atom         1           2           3           4           5           6           7           8           9          10
 IAtWgt=          12          12          12          12          12          12          12          12          12          12
 AtmWgt=  12.0000000  12.0000000  12.0000000  12.0000000  12.0000000  12.0000000  12.0000000  12.0000000  12.0000000  12.0000000
 NucSpn=           0           0           0           0           0           0           0           0           0           0
 AtZEff=  -0.0000000  -0.0000000  -0.0000000  -0.0000000  -0.0000000  -0.0000000  -0.0000000  -0.0000000  -0.0000000  -0.0000000
 NQMom=    0.0000000   0.0000000   0.0000000   0.0000000   0.0000000   0.0000000   0.0000000   0.0000000   0.0000000   0.0000000
 NMagM=    0.0000000   0.0000000   0.0000000   0.0000000   0.0000000   0.0000000   0.0000000   0.0000000   0.0000000   0.0000000
 AtZNuc=   6.0000000   6.0000000   6.0000000   6.0000000   6.0000000   6.0000000   6.0000000   6.0000000   6.0000000   6.0000000

  Atom        11          12          13          14          15          16          17          18          19          20
 IAtWgt=          12          12          12          14          12          16          12          14          14          12
 AtmWgt=  12.0000000  12.0000000  12.0000000  14.0030740  12.0000000  15.9949146  12.0000000  14.0030740  14.0030740  12.0000000
 NucSpn=           0           0           0           2           0           0           0           2           2           0
 AtZEff=  -0.0000000  -0.0000000  -0.0000000  -0.0000000  -0.0000000  -0.0000000  -0.0000000  -0.0000000  -0.0000000  -0.0000000
 NQMom=    0.0000000   0.0000000   0.0000000   2.0440000   0.0000000   0.0000000   0.0000000   2.0440000   2.0440000   0.0000000
 NMagM=    0.0000000   0.0000000   0.0000000   0.4037610   0.0000000   0.0000000   0.0000000   0.4037610   0.4037610   0.0000000
 AtZNuc=   6.0000000   6.0000000   6.0000000   7.0000000   6.0000000   8.0000000   6.0000000   7.0000000   7.0000000   6.0000000

  Atom        21          22          23          24          25          26          27          28          29          30
 IAtWgt=          14          14          12          12           1           1           1           1           1           1
 AtmWgt=  14.0030740  14.0030740  12.0000000  12.0000000   1.0078250   1.0078250   1.0078250   1.0078250   1.0078250   1.0078250
 NucSpn=           2           2           0           0           1           1           1           1           1           1
 AtZEff=  -0.0000000  -0.0000000  -0.0000000  -0.0000000  -0.0000000  -0.0000000  -0.0000000  -0.0000000  -0.0000000  -0.0000000
 NQMom=    2.0440000   2.0440000   0.0000000   0.0000000   0.0000000   0.0000000   0.0000000   0.0000000   0.0000000   0.0000000
 NMagM=    0.4037610   0.4037610   0.0000000   0.0000000   2.7928460   2.7928460   2.7928460   2.7928460   2.7928460   2.7928460
 AtZNuc=   7.0000000   7.0000000   6.0000000   6.0000000   1.0000000   1.0000000   1.0000000   1.0000000   1.0000000   1.0000000

  Atom        31          32          33          34          35          36          37          38          39          40
 IAtWgt=           1           1           1           1           1           1           1           1           1           1
 AtmWgt=   1.0078250   1.0078250   1.0078250   1.0078250   1.0078250   1.0078250   1.0078250   1.0078250   1.0078250   1.0078250
 NucSpn=           1           1           1           1           1           1           1           1           1           1
 AtZEff=  -0.0000000  -0.0000000  -0.0000000  -0.0000000  -0.0000000  -0.0000000  -0.0000000  -0.0000000  -0.0000000  -0.0000000
 NQMom=    0.0000000   0.0000000   0.0000000   0.0000000   0.0000000   0.0000000   0.0000000   0.0000000   0.0000000   0.0000000
 NMagM=    2.7928460   2.7928460   2.7928460   2.7928460   2.7928460   2.7928460   2.7928460   2.7928460   2.7928460   2.7928460
 AtZNuc=   1.0000000   1.0000000   1.0000000   1.0000000   1.0000000   1.0000000   1.0000000   1.0000000   1.0000000   1.0000000

  Atom        41          42          43          44          45          46          47          48          49          50
 IAtWgt=           1           1           1           1          32          16          16           1          14           1
 AtmWgt=   1.0078250   1.0078250   1.0078250   1.0078250  31.9720718  15.9949146  15.9949146   1.0078250  14.0030740   1.0078250
 NucSpn=           1           1           1           1           0           0           0           1           2           1
 AtZEff=  -0.0000000  -0.0000000  -0.0000000  -0.0000000  -0.0000000  -0.0000000  -0.0000000  -0.0000000  -0.0000000  -0.0000000
 NQMom=    0.0000000   0.0000000   0.0000000   0.0000000   0.0000000   0.0000000   0.0000000   0.0000000   2.0440000   0.0000000
 NMagM=    2.7928460   2.7928460   2.7928460   2.7928460   0.0000000   0.0000000   0.0000000   2.7928460   0.4037610   2.7928460
 AtZNuc=   1.0000000   1.0000000   1.0000000   1.0000000  16.0000000   8.0000000   8.0000000   1.0000000   7.0000000   1.0000000
 Leave Link  101 at Thu Jan 30 14:39:51 2025, MaxMem=   104857600 cpu:               0.2 elap:               0.1
 (Enter /home/pb777/GAUSSIAN/g16/l103.exe)

 GradGradGradGradGradGradGradGradGradGradGradGradGradGradGradGradGradGrad
 Berny optimization.
 Initialization pass.
                           ----------------------------
                           !    Initial Parameters    !
                           ! (Angstroms and Degrees)  !
 --------------------------                            --------------------------
 ! Name  Definition              Value          Derivative Info.                !
 --------------------------------------------------------------------------------
 ! R1    R(1,14)                 1.461          calculate D2E/DX2 analytically  !
 ! R2    R(1,21)                 1.2702         calculate D2E/DX2 analytically  !
 ! R3    R(1,22)                 1.2975         calculate D2E/DX2 analytically  !
 ! R4    R(2,18)                 1.2659         calculate D2E/DX2 analytically  !
 ! R5    R(2,19)                 1.3112         calculate D2E/DX2 analytically  !
 ! R6    R(2,25)                 1.0712         calculate D2E/DX2 analytically  !
 ! R7    R(3,4)                  1.5489         calculate D2E/DX2 analytically  !
 ! R8    R(3,16)                 1.4498         calculate D2E/DX2 analytically  !
 ! R9    R(3,26)                 1.0958         calculate D2E/DX2 analytically  !
 ! R10   R(3,27)                 1.0983         calculate D2E/DX2 analytically  !
 ! R11   R(4,5)                  1.5427         calculate D2E/DX2 analytically  !
 ! R12   R(4,9)                  1.5618         calculate D2E/DX2 analytically  !
 ! R13   R(4,28)                 1.0911         calculate D2E/DX2 analytically  !
 ! R14   R(5,6)                  1.5382         calculate D2E/DX2 analytically  !
 ! R15   R(5,29)                 1.0926         calculate D2E/DX2 analytically  !
 ! R16   R(5,30)                 1.0918         calculate D2E/DX2 analytically  !
 ! R17   R(6,7)                  1.5356         calculate D2E/DX2 analytically  !
 ! R18   R(6,31)                 1.0901         calculate D2E/DX2 analytically  !
 ! R19   R(6,32)                 1.0879         calculate D2E/DX2 analytically  !
 ! R20   R(7,8)                  1.5454         calculate D2E/DX2 analytically  !
 ! R21   R(7,33)                 1.0915         calculate D2E/DX2 analytically  !
 ! R22   R(7,34)                 1.0907         calculate D2E/DX2 analytically  !
 ! R23   R(8,9)                  1.5428         calculate D2E/DX2 analytically  !
 ! R24   R(8,35)                 1.0844         calculate D2E/DX2 analytically  !
 ! R25   R(8,36)                 1.0921         calculate D2E/DX2 analytically  !
 ! R26   R(9,37)                 1.0911         calculate D2E/DX2 analytically  !
 ! R27   R(9,38)                 1.092          calculate D2E/DX2 analytically  !
 ! R28   R(10,11)                1.3983         calculate D2E/DX2 analytically  !
 ! R29   R(10,24)                1.402          calculate D2E/DX2 analytically  !
 ! R30   R(10,45)                1.7899         calculate D2E/DX2 analytically  !
 ! R31   R(11,12)                1.3921         calculate D2E/DX2 analytically  !
 ! R32   R(11,39)                1.0783         calculate D2E/DX2 analytically  !
 ! R33   R(12,13)                1.394          calculate D2E/DX2 analytically  !
 ! R34   R(12,40)                1.0829         calculate D2E/DX2 analytically  !
 ! R35   R(13,23)                1.4027         calculate D2E/DX2 analytically  !
 ! R36   R(13,41)                1.0799         calculate D2E/DX2 analytically  !
 ! R37   R(14,15)                1.2922         calculate D2E/DX2 analytically  !
 ! R38   R(15,16)                1.3434         calculate D2E/DX2 analytically  !
 ! R39   R(15,17)                1.4506         calculate D2E/DX2 analytically  !
 ! R40   R(17,18)                1.4346         calculate D2E/DX2 analytically  !
 ! R41   R(17,20)                1.3394         calculate D2E/DX2 analytically  !
 ! R42   R(19,20)                1.2998         calculate D2E/DX2 analytically  !
 ! R43   R(19,42)                1.0224         calculate D2E/DX2 analytically  !
 ! R44   R(20,21)                1.4242         calculate D2E/DX2 analytically  !
 ! R45   R(22,23)                1.4039         calculate D2E/DX2 analytically  !
 ! R46   R(22,43)                1.0108         calculate D2E/DX2 analytically  !
 ! R47   R(23,24)                1.3961         calculate D2E/DX2 analytically  !
 ! R48   R(24,44)                1.0773         calculate D2E/DX2 analytically  !
 ! R49   R(45,46)                1.4633         calculate D2E/DX2 analytically  !
 ! R50   R(45,47)                1.4651         calculate D2E/DX2 analytically  !
 ! R51   R(45,49)                1.7098         calculate D2E/DX2 analytically  !
 ! R52   R(48,49)                1.031          calculate D2E/DX2 analytically  !
 ! R53   R(49,50)                1.0166         calculate D2E/DX2 analytically  !
 ! A1    A(14,1,21)            118.0237         calculate D2E/DX2 analytically  !
 ! A2    A(14,1,22)            129.5499         calculate D2E/DX2 analytically  !
 ! A3    A(21,1,22)            112.4195         calculate D2E/DX2 analytically  !
 ! A4    A(18,2,19)            111.4686         calculate D2E/DX2 analytically  !
 ! A5    A(18,2,25)            126.2845         calculate D2E/DX2 analytically  !
 ! A6    A(19,2,25)            122.2337         calculate D2E/DX2 analytically  !
 ! A7    A(4,3,16)             108.8423         calculate D2E/DX2 analytically  !
 ! A8    A(4,3,26)             109.6101         calculate D2E/DX2 analytically  !
 ! A9    A(4,3,27)             105.5277         calculate D2E/DX2 analytically  !
 ! A10   A(16,3,26)            108.1958         calculate D2E/DX2 analytically  !
 ! A11   A(16,3,27)            117.3866         calculate D2E/DX2 analytically  !
 ! A12   A(26,3,27)            107.1059         calculate D2E/DX2 analytically  !
 ! A13   A(3,4,5)              106.8132         calculate D2E/DX2 analytically  !
 ! A14   A(3,4,9)              108.7409         calculate D2E/DX2 analytically  !
 ! A15   A(3,4,28)             110.9167         calculate D2E/DX2 analytically  !
 ! A16   A(5,4,9)              113.059          calculate D2E/DX2 analytically  !
 ! A17   A(5,4,28)             108.2581         calculate D2E/DX2 analytically  !
 ! A18   A(9,4,28)             109.0551         calculate D2E/DX2 analytically  !
 ! A19   A(4,5,6)              113.7174         calculate D2E/DX2 analytically  !
 ! A20   A(4,5,29)             109.8638         calculate D2E/DX2 analytically  !
 ! A21   A(4,5,30)             110.4108         calculate D2E/DX2 analytically  !
 ! A22   A(6,5,29)             106.4326         calculate D2E/DX2 analytically  !
 ! A23   A(6,5,30)             110.0394         calculate D2E/DX2 analytically  !
 ! A24   A(29,5,30)            106.0225         calculate D2E/DX2 analytically  !
 ! A25   A(5,6,7)              115.6925         calculate D2E/DX2 analytically  !
 ! A26   A(5,6,31)             110.5129         calculate D2E/DX2 analytically  !
 ! A27   A(5,6,32)             106.8604         calculate D2E/DX2 analytically  !
 ! A28   A(7,6,31)             109.9325         calculate D2E/DX2 analytically  !
 ! A29   A(7,6,32)             107.1841         calculate D2E/DX2 analytically  !
 ! A30   A(31,6,32)            106.1232         calculate D2E/DX2 analytically  !
 ! A31   A(6,7,8)              111.6688         calculate D2E/DX2 analytically  !
 ! A32   A(6,7,33)             109.0426         calculate D2E/DX2 analytically  !
 ! A33   A(6,7,34)             110.4329         calculate D2E/DX2 analytically  !
 ! A34   A(8,7,33)             108.7686         calculate D2E/DX2 analytically  !
 ! A35   A(8,7,34)             110.4189         calculate D2E/DX2 analytically  !
 ! A36   A(33,7,34)            106.3414         calculate D2E/DX2 analytically  !
 ! A37   A(7,8,9)              114.2214         calculate D2E/DX2 analytically  !
 ! A38   A(7,8,35)             109.8668         calculate D2E/DX2 analytically  !
 ! A39   A(7,8,36)             107.9358         calculate D2E/DX2 analytically  !
 ! A40   A(9,8,35)             112.0164         calculate D2E/DX2 analytically  !
 ! A41   A(9,8,36)             107.616          calculate D2E/DX2 analytically  !
 ! A42   A(35,8,36)            104.6261         calculate D2E/DX2 analytically  !
 ! A43   A(4,9,8)              114.1745         calculate D2E/DX2 analytically  !
 ! A44   A(4,9,37)             110.4349         calculate D2E/DX2 analytically  !
 ! A45   A(4,9,38)             110.5735         calculate D2E/DX2 analytically  !
 ! A46   A(8,9,37)             110.0986         calculate D2E/DX2 analytically  !
 ! A47   A(8,9,38)             105.3356         calculate D2E/DX2 analytically  !
 ! A48   A(37,9,38)            105.7868         calculate D2E/DX2 analytically  !
 ! A49   A(11,10,24)           119.6119         calculate D2E/DX2 analytically  !
 ! A50   A(11,10,45)           119.7166         calculate D2E/DX2 analytically  !
 ! A51   A(24,10,45)           120.65           calculate D2E/DX2 analytically  !
 ! A52   A(10,11,12)           120.1508         calculate D2E/DX2 analytically  !
 ! A53   A(10,11,39)           120.5163         calculate D2E/DX2 analytically  !
 ! A54   A(12,11,39)           119.3326         calculate D2E/DX2 analytically  !
 ! A55   A(11,12,13)           119.754          calculate D2E/DX2 analytically  !
 ! A56   A(11,12,40)           120.3092         calculate D2E/DX2 analytically  !
 ! A57   A(13,12,40)           119.9354         calculate D2E/DX2 analytically  !
 ! A58   A(12,13,23)           121.032          calculate D2E/DX2 analytically  !
 ! A59   A(12,13,41)           119.0262         calculate D2E/DX2 analytically  !
 ! A60   A(23,13,41)           119.9334         calculate D2E/DX2 analytically  !
 ! A61   A(1,14,15)            122.8931         calculate D2E/DX2 analytically  !
 ! A62   A(14,15,16)           120.4487         calculate D2E/DX2 analytically  !
 ! A63   A(14,15,17)           117.8516         calculate D2E/DX2 analytically  !
 ! A64   A(16,15,17)           121.696          calculate D2E/DX2 analytically  !
 ! A65   A(3,16,15)            103.9239         calculate D2E/DX2 analytically  !
 ! A66   A(15,17,18)           139.6791         calculate D2E/DX2 analytically  !
 ! A67   A(15,17,20)           119.4344         calculate D2E/DX2 analytically  !
 ! A68   A(18,17,20)           100.8835         calculate D2E/DX2 analytically  !
 ! A69   A(2,18,17)            108.3309         calculate D2E/DX2 analytically  !
 ! A70   A(2,19,20)            106.2584         calculate D2E/DX2 analytically  !
 ! A71   A(2,19,42)            123.8364         calculate D2E/DX2 analytically  !
 ! A72   A(20,19,42)           129.7628         calculate D2E/DX2 analytically  !
 ! A73   A(17,20,19)           113.056          calculate D2E/DX2 analytically  !
 ! A74   A(17,20,21)           119.7814         calculate D2E/DX2 analytically  !
 ! A75   A(19,20,21)           127.1419         calculate D2E/DX2 analytically  !
 ! A76   A(1,21,20)            121.9969         calculate D2E/DX2 analytically  !
 ! A77   A(1,22,23)            125.0261         calculate D2E/DX2 analytically  !
 ! A78   A(1,22,43)            115.4487         calculate D2E/DX2 analytically  !
 ! A79   A(23,22,43)           117.3537         calculate D2E/DX2 analytically  !
 ! A80   A(13,23,22)           121.3802         calculate D2E/DX2 analytically  !
 ! A81   A(13,23,24)           118.6167         calculate D2E/DX2 analytically  !
 ! A82   A(22,23,24)           120.0003         calculate D2E/DX2 analytically  !
 ! A83   A(10,24,23)           120.7906         calculate D2E/DX2 analytically  !
 ! A84   A(10,24,44)           119.8851         calculate D2E/DX2 analytically  !
 ! A85   A(23,24,44)           119.3084         calculate D2E/DX2 analytically  !
 ! A86   A(10,45,46)           108.9537         calculate D2E/DX2 analytically  !
 ! A87   A(10,45,47)           107.4221         calculate D2E/DX2 analytically  !
 ! A88   A(10,45,49)           105.6314         calculate D2E/DX2 analytically  !
 ! A89   A(46,45,47)           121.5613         calculate D2E/DX2 analytically  !
 ! A90   A(46,45,49)           106.5086         calculate D2E/DX2 analytically  !
 ! A91   A(47,45,49)           105.6856         calculate D2E/DX2 analytically  !
 ! A92   A(45,49,48)           106.2689         calculate D2E/DX2 analytically  !
 ! A93   A(45,49,50)           109.6206         calculate D2E/DX2 analytically  !
 ! A94   A(48,49,50)           108.8546         calculate D2E/DX2 analytically  !
 ! D1    D(21,1,14,15)          -0.3723         calculate D2E/DX2 analytically  !
 ! D2    D(22,1,14,15)         178.5919         calculate D2E/DX2 analytically  !
 ! D3    D(14,1,21,20)          -0.941          calculate D2E/DX2 analytically  !
 ! D4    D(22,1,21,20)         179.9229         calculate D2E/DX2 analytically  !
 ! D5    D(14,1,22,23)         -21.7146         calculate D2E/DX2 analytically  !
 ! D6    D(14,1,22,43)         175.5519         calculate D2E/DX2 analytically  !
 ! D7    D(21,1,22,23)         157.2963         calculate D2E/DX2 analytically  !
 ! D8    D(21,1,22,43)          -5.4371         calculate D2E/DX2 analytically  !
 ! D9    D(19,2,18,17)           0.3509         calculate D2E/DX2 analytically  !
 ! D10   D(25,2,18,17)         179.0458         calculate D2E/DX2 analytically  !
 ! D11   D(18,2,19,20)          -0.0571         calculate D2E/DX2 analytically  !
 ! D12   D(18,2,19,42)         175.9787         calculate D2E/DX2 analytically  !
 ! D13   D(25,2,19,20)        -178.8134         calculate D2E/DX2 analytically  !
 ! D14   D(25,2,19,42)          -2.7777         calculate D2E/DX2 analytically  !
 ! D15   D(16,3,4,5)           129.1727         calculate D2E/DX2 analytically  !
 ! D16   D(16,3,4,9)          -108.5107         calculate D2E/DX2 analytically  !
 ! D17   D(16,3,4,28)           11.4065         calculate D2E/DX2 analytically  !
 ! D18   D(26,3,4,5)            11.0186         calculate D2E/DX2 analytically  !
 ! D19   D(26,3,4,9)           133.3352         calculate D2E/DX2 analytically  !
 ! D20   D(26,3,4,28)         -106.7477         calculate D2E/DX2 analytically  !
 ! D21   D(27,3,4,5)          -104.0099         calculate D2E/DX2 analytically  !
 ! D22   D(27,3,4,9)            18.3066         calculate D2E/DX2 analytically  !
 ! D23   D(27,3,4,28)          138.2238         calculate D2E/DX2 analytically  !
 ! D24   D(4,3,16,15)          163.4859         calculate D2E/DX2 analytically  !
 ! D25   D(26,3,16,15)         -77.4717         calculate D2E/DX2 analytically  !
 ! D26   D(27,3,16,15)          43.7928         calculate D2E/DX2 analytically  !
 ! D27   D(3,4,5,6)            164.9645         calculate D2E/DX2 analytically  !
 ! D28   D(3,4,5,29)            45.8044         calculate D2E/DX2 analytically  !
 ! D29   D(3,4,5,30)           -70.7837         calculate D2E/DX2 analytically  !
 ! D30   D(9,4,5,6)             45.3994         calculate D2E/DX2 analytically  !
 ! D31   D(9,4,5,29)           -73.7607         calculate D2E/DX2 analytically  !
 ! D32   D(9,4,5,30)           169.6512         calculate D2E/DX2 analytically  !
 ! D33   D(28,4,5,6)           -75.5363         calculate D2E/DX2 analytically  !
 ! D34   D(28,4,5,29)          165.3036         calculate D2E/DX2 analytically  !
 ! D35   D(28,4,5,30)           48.7155         calculate D2E/DX2 analytically  !
 ! D36   D(3,4,9,8)           -164.5526         calculate D2E/DX2 analytically  !
 ! D37   D(3,4,9,37)            70.7518         calculate D2E/DX2 analytically  !
 ! D38   D(3,4,9,38)           -45.9892         calculate D2E/DX2 analytically  !
 ! D39   D(5,4,9,8)            -46.1023         calculate D2E/DX2 analytically  !
 ! D40   D(5,4,9,37)          -170.7978         calculate D2E/DX2 analytically  !
 ! D41   D(5,4,9,38)            72.4611         calculate D2E/DX2 analytically  !
 ! D42   D(28,4,9,8)            74.3803         calculate D2E/DX2 analytically  !
 ! D43   D(28,4,9,37)          -50.3152         calculate D2E/DX2 analytically  !
 ! D44   D(28,4,9,38)         -167.0562         calculate D2E/DX2 analytically  !
 ! D45   D(4,5,6,7)            -48.1359         calculate D2E/DX2 analytically  !
 ! D46   D(4,5,6,31)          -173.8634         calculate D2E/DX2 analytically  !
 ! D47   D(4,5,6,32)            71.099          calculate D2E/DX2 analytically  !
 ! D48   D(29,5,6,7)            72.9625         calculate D2E/DX2 analytically  !
 ! D49   D(29,5,6,31)          -52.765          calculate D2E/DX2 analytically  !
 ! D50   D(29,5,6,32)         -167.8026         calculate D2E/DX2 analytically  !
 ! D51   D(30,5,6,7)          -172.588          calculate D2E/DX2 analytically  !
 ! D52   D(30,5,6,31)           61.6846         calculate D2E/DX2 analytically  !
 ! D53   D(30,5,6,32)          -53.353          calculate D2E/DX2 analytically  !
 ! D54   D(5,6,7,8)             48.8375         calculate D2E/DX2 analytically  !
 ! D55   D(5,6,7,33)           -71.3873         calculate D2E/DX2 analytically  !
 ! D56   D(5,6,7,34)           172.1111         calculate D2E/DX2 analytically  !
 ! D57   D(31,6,7,8)           174.8605         calculate D2E/DX2 analytically  !
 ! D58   D(31,6,7,33)           54.6357         calculate D2E/DX2 analytically  !
 ! D59   D(31,6,7,34)          -61.8659         calculate D2E/DX2 analytically  !
 ! D60   D(32,6,7,8)           -70.2198         calculate D2E/DX2 analytically  !
 ! D61   D(32,6,7,33)          169.5555         calculate D2E/DX2 analytically  !
 ! D62   D(32,6,7,34)           53.0538         calculate D2E/DX2 analytically  !
 ! D63   D(6,7,8,9)            -48.5808         calculate D2E/DX2 analytically  !
 ! D64   D(6,7,8,35)          -175.4239         calculate D2E/DX2 analytically  !
 ! D65   D(6,7,8,36)            71.0503         calculate D2E/DX2 analytically  !
 ! D66   D(33,7,8,9)            71.8045         calculate D2E/DX2 analytically  !
 ! D67   D(33,7,8,35)          -55.0386         calculate D2E/DX2 analytically  !
 ! D68   D(33,7,8,36)         -168.5644         calculate D2E/DX2 analytically  !
 ! D69   D(34,7,8,9)          -171.8623         calculate D2E/DX2 analytically  !
 ! D70   D(34,7,8,35)           61.2946         calculate D2E/DX2 analytically  !
 ! D71   D(34,7,8,36)          -52.2312         calculate D2E/DX2 analytically  !
 ! D72   D(7,8,9,4)             48.3294         calculate D2E/DX2 analytically  !
 ! D73   D(7,8,9,37)           173.2037         calculate D2E/DX2 analytically  !
 ! D74   D(7,8,9,38)           -73.1715         calculate D2E/DX2 analytically  !
 ! D75   D(35,8,9,4)           174.0518         calculate D2E/DX2 analytically  !
 ! D76   D(35,8,9,37)          -61.0739         calculate D2E/DX2 analytically  !
 ! D77   D(35,8,9,38)           52.5509         calculate D2E/DX2 analytically  !
 ! D78   D(36,8,9,4)           -71.4813         calculate D2E/DX2 analytically  !
 ! D79   D(36,8,9,37)           53.393          calculate D2E/DX2 analytically  !
 ! D80   D(36,8,9,38)          167.0179         calculate D2E/DX2 analytically  !
 ! D81   D(24,10,11,12)          0.5293         calculate D2E/DX2 analytically  !
 ! D82   D(24,10,11,39)       -179.242          calculate D2E/DX2 analytically  !
 ! D83   D(45,10,11,12)       -177.7945         calculate D2E/DX2 analytically  !
 ! D84   D(45,10,11,39)          2.4342         calculate D2E/DX2 analytically  !
 ! D85   D(11,10,24,23)         -2.0906         calculate D2E/DX2 analytically  !
 ! D86   D(11,10,24,44)        179.3695         calculate D2E/DX2 analytically  !
 ! D87   D(45,10,24,23)        176.2173         calculate D2E/DX2 analytically  !
 ! D88   D(45,10,24,44)         -2.3226         calculate D2E/DX2 analytically  !
 ! D89   D(11,10,45,46)       -170.568          calculate D2E/DX2 analytically  !
 ! D90   D(11,10,45,47)         55.9763         calculate D2E/DX2 analytically  !
 ! D91   D(11,10,45,49)        -56.484          calculate D2E/DX2 analytically  !
 ! D92   D(24,10,45,46)         11.1259         calculate D2E/DX2 analytically  !
 ! D93   D(24,10,45,47)       -122.3299         calculate D2E/DX2 analytically  !
 ! D94   D(24,10,45,49)        125.2099         calculate D2E/DX2 analytically  !
 ! D95   D(10,11,12,13)          0.5001         calculate D2E/DX2 analytically  !
 ! D96   D(10,11,12,40)       -179.9397         calculate D2E/DX2 analytically  !
 ! D97   D(39,11,12,13)       -179.726          calculate D2E/DX2 analytically  !
 ! D98   D(39,11,12,40)         -0.1657         calculate D2E/DX2 analytically  !
 ! D99   D(11,12,13,23)          0.0014         calculate D2E/DX2 analytically  !
 ! D100  D(11,12,13,41)        178.9481         calculate D2E/DX2 analytically  !
 ! D101  D(40,12,13,23)       -179.5605         calculate D2E/DX2 analytically  !
 ! D102  D(40,12,13,41)         -0.6139         calculate D2E/DX2 analytically  !
 ! D103  D(12,13,23,22)        177.8779         calculate D2E/DX2 analytically  !
 ! D104  D(12,13,23,24)         -1.5169         calculate D2E/DX2 analytically  !
 ! D105  D(41,13,23,22)         -1.0593         calculate D2E/DX2 analytically  !
 ! D106  D(41,13,23,24)        179.5459         calculate D2E/DX2 analytically  !
 ! D107  D(1,14,15,16)        -179.5335         calculate D2E/DX2 analytically  !
 ! D108  D(1,14,15,17)           1.1588         calculate D2E/DX2 analytically  !
 ! D109  D(14,15,16,3)          18.2854         calculate D2E/DX2 analytically  !
 ! D110  D(17,15,16,3)        -162.4339         calculate D2E/DX2 analytically  !
 ! D111  D(14,15,17,18)       -179.8954         calculate D2E/DX2 analytically  !
 ! D112  D(14,15,17,20)         -0.6675         calculate D2E/DX2 analytically  !
 ! D113  D(16,15,17,18)          0.806          calculate D2E/DX2 analytically  !
 ! D114  D(16,15,17,20)       -179.9661         calculate D2E/DX2 analytically  !
 ! D115  D(15,17,18,2)         178.8317         calculate D2E/DX2 analytically  !
 ! D116  D(20,17,18,2)          -0.4835         calculate D2E/DX2 analytically  !
 ! D117  D(15,17,20,19)       -179.0241         calculate D2E/DX2 analytically  !
 ! D118  D(15,17,20,21)         -0.5623         calculate D2E/DX2 analytically  !
 ! D119  D(18,17,20,19)          0.4672         calculate D2E/DX2 analytically  !
 ! D120  D(18,17,20,21)        178.9289         calculate D2E/DX2 analytically  !
 ! D121  D(2,19,20,17)          -0.2906         calculate D2E/DX2 analytically  !
 ! D122  D(2,19,20,21)        -178.6158         calculate D2E/DX2 analytically  !
 ! D123  D(42,19,20,17)       -176.0064         calculate D2E/DX2 analytically  !
 ! D124  D(42,19,20,21)          5.6685         calculate D2E/DX2 analytically  !
 ! D125  D(17,20,21,1)           1.4077         calculate D2E/DX2 analytically  !
 ! D126  D(19,20,21,1)         179.6321         calculate D2E/DX2 analytically  !
 ! D127  D(1,22,23,13)         -33.3689         calculate D2E/DX2 analytically  !
 ! D128  D(1,22,23,24)         146.0177         calculate D2E/DX2 analytically  !
 ! D129  D(43,22,23,13)        129.068          calculate D2E/DX2 analytically  !
 ! D130  D(43,22,23,24)        -51.5455         calculate D2E/DX2 analytically  !
 ! D131  D(13,23,24,10)          2.5594         calculate D2E/DX2 analytically  !
 ! D132  D(13,23,24,44)       -178.8923         calculate D2E/DX2 analytically  !
 ! D133  D(22,23,24,10)       -176.8439         calculate D2E/DX2 analytically  !
 ! D134  D(22,23,24,44)          1.7043         calculate D2E/DX2 analytically  !
 ! D135  D(10,45,49,48)        -55.2552         calculate D2E/DX2 analytically  !
 ! D136  D(10,45,49,50)         62.2245         calculate D2E/DX2 analytically  !
 ! D137  D(46,45,49,48)         60.5113         calculate D2E/DX2 analytically  !
 ! D138  D(46,45,49,50)        177.991          calculate D2E/DX2 analytically  !
 ! D139  D(47,45,49,48)       -168.9276         calculate D2E/DX2 analytically  !
 ! D140  D(47,45,49,50)        -51.4479         calculate D2E/DX2 analytically  !
 --------------------------------------------------------------------------------
 Trust Radius=3.00D-01 FncErr=1.00D-07 GrdErr=1.00D-07 EigMax=2.50D+02 EigMin=1.00D-04
 Number of steps in this run=    297 maximum allowed number of steps=    300.
 GradGradGradGradGradGradGradGradGradGradGradGradGradGradGradGradGradGrad

 Leave Link  103 at Thu Jan 30 14:39:51 2025, MaxMem=   104857600 cpu:               0.0 elap:               0.0
 (Enter /home/pb777/GAUSSIAN/g16/l202.exe)
                          Input orientation:                          
 ---------------------------------------------------------------------
 Center     Atomic      Atomic             Coordinates (Angstroms)
 Number     Number       Type             X           Y           Z
 ---------------------------------------------------------------------
      1          6           0        1.422000   29.034000    6.768000
      2          6           0       -1.450000   32.163000    8.008000
      3          6           0       -0.582000   26.625000    8.978000
      4          6           0       -1.250000   25.767000   10.081000
      5          6           0       -1.355000   24.331000    9.527000
      6          6           0       -1.653000   23.273000   10.603000
      7          6           0       -0.781000   23.343000   11.865000
      8          6           0       -0.712000   24.779000   12.432000
      9          6           0       -0.388000   25.860000   11.380000
     10          6           0        4.685000   25.756000    5.595000
     11          6           0        4.752000   25.223000    6.886000
     12          6           0        4.103000   25.860000    7.940000
     13          6           0        3.377000   27.026000    7.702000
     14          7           0        0.488000   28.180000    7.498000
     15          6           0       -0.568000   28.637000    8.086000
     16          8           0       -1.389000   27.808000    8.752000
     17          6           0       -0.837000   30.059000    7.987000
     18          7           0       -1.806000   31.022000    8.425000
     19          7           0       -0.337000   32.096000    7.318000
     20          6           0        0.012000   30.844000    7.311000
     21          7           0        1.172000   30.278000    6.709000
     22          7           0        2.523000   28.721000    6.157000
     23          6           0        3.288000   27.572000    6.413000
     24          6           0        3.970000   26.941000    5.371000
     25          1           0       -1.974000   33.085000    8.159000
     26          1           0       -0.541000   26.055000    8.043000
     27          1           0        0.454000   26.776000    9.310000
     28          1           0       -2.258000   26.125000   10.296000
     29          1           0       -0.409000   24.042000    9.063000
     30          1           0       -2.106000   24.282000    8.736000
     31          1           0       -1.609000   22.271000   10.176000
     32          1           0       -2.684000   23.423000   10.916000
     33          1           0        0.230000   23.014000   11.618000
     34          1           0       -1.152000   22.652000   12.623000
     35          1           0       -0.027000   24.811000   13.272000
     36          1           0       -1.687000   25.018000   12.862000
     37          1           0       -0.474000   26.853000   11.824000
     38          1           0        0.671000   25.729000   11.148000
     39          1           0        5.308000   24.319000    7.077000
     40          1           0        4.154000   25.450000    8.941000
     41          1           0        2.864000   27.501000    8.525000
     42          1           0        0.088000   32.896000    6.844000
     43          1           0        2.972000   29.476000    5.657000
     44          1           0        3.924000   27.361000    4.380000
     45         16           0        5.474000   24.896000    4.238000
     46          8           0        5.456000   25.757000    3.055000
     47          8           0        4.930000   23.536000    4.205000
     48          1           0        7.455000   25.677000    4.901000
     49          7           0        7.114000   24.727000    4.691000
     50          1           0        7.179000   24.161000    5.533000
 ---------------------------------------------------------------------
                    Distance matrix (angstroms):
                    1          2          3          4          5
     1  C    0.000000
     2  C    4.424548   0.000000
     3  C    3.834501   5.688916   0.000000
     4  C    5.365523   6.726525   1.548870   0.000000
     5  C    6.118988   7.978509   2.482210   1.542737   0.000000
     6  C    7.573108   9.263225   3.876025   2.579715   1.538163
     7  C    7.951107   9.649684   4.375602   3.046045   2.602281
     8  C    7.398640   8.639437   3.918511   2.606298   3.008850
     9  C    5.883954   7.226758   2.528332   1.561760   2.589699
    10  C    4.771623   9.192956   6.319900   7.439660   7.346622
    11  C    5.062267   9.374822   5.898612   6.821141   6.713121
    12  C    4.316899   8.400491   4.859207   5.766033   5.886100
    13  C    2.954056   7.055660   4.178835   5.352929   5.743298
    14  N    1.461017   4.458725   2.398609   3.938921   4.725282
    15  C    2.419676   3.635476   2.200910   3.561186   4.608415
    16  O    3.652541   4.418516   1.449763   2.439517   3.562486
    17  C    2.763995   2.191581   3.583220   4.793398   5.953983
    18  N    4.137364   1.265901   4.597564   5.537734   6.796123
    19  N    3.573853   1.311243   5.722540   6.965916   8.137028
    20  C    2.357764   2.088783   4.575116   5.919584   7.014165
    21  N    1.270243   3.480734   4.644275   6.130709   7.049373
    22  N    1.297494   5.572997   4.689593   6.193498   6.757802
    23  C    2.396962   6.787485   4.738453   6.107839   6.462084
    24  C    3.581140   7.974927   5.816443   7.128168   7.241551
    25  H    5.466104   1.071196   6.658831   7.600749   8.881841
    26  H    3.788593   6.175368   1.095813   2.176940   2.415994
    27  H    3.535159   5.860050   1.098326   2.125121   3.049196
    28  H    5.869537   6.507323   2.190000   1.091079   2.150629
    29  H    5.791343   8.255141   2.590182   2.172379   1.092581
    30  H    6.237092   7.941693   2.805493   2.178758   1.091826
    31  H    8.157181  10.128039   4.631117   3.515668   2.174699
    32  H    8.096200   9.293375   4.292674   2.871919   2.126035
    33  H    7.822005   9.977911   4.546236   3.483070   2.935812
    34  H    9.035288  10.575734   5.421776   4.021765   3.527813
    35  H    7.888938   9.153498   4.694364   3.548541   4.002375
    36  H    7.932904   8.641094   4.346140   2.913062   3.421172
    37  H    5.823634   6.611394   2.857160   2.195364   3.523188
    38  H    5.538179   7.466900   2.661151   2.197766   2.947324
    39  H    6.117818  10.395463   6.604812   7.357179   7.099170
    40  H    5.003080   8.794298   4.879722   5.532025   5.651959
    41  H    2.741624   6.372765   3.584341   4.727884   5.371486
    42  H    4.086609   2.063402   6.657950   7.942988   9.090653
    43  H    1.957597   5.683419   5.638099   7.152184   7.756987
    44  H    3.842067   8.068548   6.479764   7.862093   7.971220
    45  S    6.320020  10.722125   7.882397   8.950501   8.656095
    46  O    6.387351  10.642457   8.502517   9.712632   9.503156
    47  O    7.007356  11.383863   7.918686   8.814598   8.273871
    48  H    7.152079  11.446426   9.061678  10.130031  10.041299
    49  N    7.433912  11.816881   9.011614  10.004509   9.760516
    50  H    7.642932  12.025692   8.841518   9.711415   9.423911
                    6          7          8          9         10
     6  C    0.000000
     7  C    1.535555   0.000000
     8  C    2.549266   1.545427   0.000000
     9  C    2.982704   2.593253   1.542803   0.000000
    10  C    8.450775   8.660983   8.765085   7.694957   0.000000
    11  C    7.657847   7.677169   7.798112   6.857216   1.398306
    12  C    6.849502   6.752360   6.673144   5.657091   2.418381
    13  C    6.913878   6.941471   6.643932   5.390961   2.786254
    14  N    6.188987   6.639098   6.111559   4.606485   5.206918
    15  C    6.023704   6.507891   5.813142   4.312142   6.488394
    16  O    4.905316   5.476920   4.814101   3.420978   7.146386
    17  C    7.318409   7.755429   6.903046   5.417163   7.397970
    18  N    8.050720   8.476513   7.498529   6.114654   8.824553
    19  N    9.506230   9.873568   8.934882   7.442455   8.269511
    20  C    8.421967   8.810946   7.970762   6.446473   7.118239
    21  N    8.497875   8.859615   8.157278   6.615933   5.833579
    22  N    8.178423   8.510027   8.085803   6.628648   3.712319
    23  C    7.775023   8.010337   7.747852   6.412099   2.432815
    24  C    8.511532   8.814173   8.743746   7.501254   1.402008
    25  H   10.116893  10.491151   9.425540   8.067891  10.228911
    26  H    3.940770   4.692572   4.573919   3.346192   5.778683
    27  H    4.287459   4.454070   3.885158   2.415144   5.722149
    28  H    2.931583   3.518922   2.960461   2.177655   8.392902
    29  H    2.123793   2.911733   3.461956   2.945175   6.396378
    30  H    2.170018   3.525335   3.981289   3.525953   7.626024
    31  H    1.090078   2.165061   3.490589   3.977610   8.529081
    32  H    1.087856   2.128006   2.832980   3.380219   9.383927
    33  H    2.154761   1.091499   2.159904   2.922034   7.977601
    34  H    2.171875   1.090727   2.180415   3.524203   9.648739
    35  H    3.483229   2.168684   1.084366   2.193259   9.057168
    36  H    2.854691   2.149528   1.092083   2.143056   9.693107
    37  H    3.961980   3.523639   2.174347   1.091137   8.162054
    38  H    3.424900   2.883642   2.112781   1.092001   6.851915
    39  H    7.872885   7.807268   8.070194   7.303075   2.156252
    40  H    6.420500   6.110929   6.026216   5.171710   3.401663
    41  H    6.526665   6.459922   5.954973   4.628111   3.866001
    42  H   10.476798  10.827068   9.886932   8.384937   8.583240
    43  H    9.183178   9.499366   9.029634   7.557631   4.095926
    44  H    9.302709   9.711157   9.643336   8.357413   2.152062
    45  S    9.692341   9.985387  10.267518   9.289806   1.789852
    46  O   10.662103  11.060907  11.266270  10.171950   2.654438
    47  O    9.183652   9.556588  10.052897   9.228365   2.630689
    48  H   11.011253  11.035241  11.145504  10.174654   2.856707
    49  N   10.673619  10.756986  11.007818  10.114663   2.788566
    50  H   10.222410  10.204163  10.499810   9.712543   2.961065
                   11         12         13         14         15
    11  C    0.000000
    12  C    1.392080   0.000000
    13  C    2.409832   1.394014   0.000000
    14  N    5.224949   4.318100   3.117636   0.000000
    15  C    6.434112   5.436109   4.278528   1.292180   0.000000
    16  O    6.919253   5.883546   4.942548   2.287800   1.343443
    17  C    7.472350   6.483626   5.199818   2.350614   1.450602
    18  N    8.888436   7.861154   6.584393   3.768120   2.708466
    19  N    8.562866   7.680376   6.296519   4.006006   3.550756
    20  C    7.365044   6.478594   5.104236   2.712645   2.409953
    21  N    6.196834   5.442871   4.052601   2.343498   2.759821
    22  N    4.211400   3.723011   2.447318   2.496435   3.644500
    23  C    2.807993   2.434522   1.402697   3.063803   4.336115
    24  C    2.420387   2.790342   2.406748   4.264220   5.553475
    25  H   10.424522   9.443438   8.096514   5.527874   4.665498
    26  H    5.481489   4.649233   4.050907   2.423116   2.582499
    27  H    5.173044   4.003893   3.345459   2.292535   2.450710
    28  H    7.847407   6.788467   6.268482   4.426324   3.748379
    29  H    5.724510   4.992434   5.009029   4.514076   4.700408
    30  H    7.165204   6.455647   6.217876   4.843128   4.664115
    31  H    7.746013   7.106867   7.320580   6.818018   6.780689
    32  H    8.647254   7.801212   7.749008   6.661333   6.298583
    33  H    6.907966   6.052068   6.429215   6.612754   6.688046
    34  H    8.624409   7.735424   7.991243   7.714532   7.532971
    35  H    7.986838   6.825505   6.893355   6.704809   6.467268
    36  H    8.787225   7.645858   7.503450   6.595556   6.095859
    37  H    7.372369   6.084442   5.643670   4.626084   4.142962
    38  H    5.922435   4.699686   4.569416   4.400385   4.400844
    39  H    1.078347   2.138101   3.383376   6.190070   7.361425
    40  H    2.152245   1.082914   2.150029   4.793194   5.760666
    41  H    3.382329   2.137809   1.079872   2.676032   3.641681
    42  H    8.979398   8.174762   6.783110   4.777905   4.484638
    43  H    4.771462   4.423427   3.216916   3.352485   4.374421
    44  H    3.396567   3.867640   3.383359   4.711558   5.961600
    45  S    2.764076   4.063710   4.575326   6.802386   8.081333
    46  O    3.931581   5.069955   5.246638   7.091700   8.360259
    47  O    3.172604   4.476062   5.178892   7.220938   8.444547
    48  H    3.384162   4.528235   5.127912   7.845286   9.125478
    49  N    3.262374   4.572287   5.321343   7.981625   9.264300
    50  H    2.974690   4.259346   5.231442   8.048793   9.304214
                   16         17         18         19         20
    16  O    0.000000
    17  C    2.440682   0.000000
    18  N    3.257394   1.434634   0.000000
    19  N    4.642198   2.201574   2.129997   0.000000
    20  C    3.640958   1.339404   2.139580   1.299752   0.000000
    21  N    4.102861   2.391093   3.516628   2.439895   1.424205
    22  N    4.782399   4.053239   5.401728   4.573636   3.484819
    23  C    5.234591   5.067373   6.472981   5.867387   4.716414
    24  C    6.395446   6.298621   7.703483   6.993932   5.887510
    25  H    5.342341   3.237133   2.086851   2.089299   3.112134
    26  H    2.072388   4.015317   5.139770   6.087768   4.876080
    27  H    2.184728   3.767638   4.890740   5.735516   4.554118
    28  H    2.443683   4.777769   5.261706   6.943455   6.027610
    29  H    3.903829   6.127418   7.146961   8.241185   7.036615
    30  H    3.598197   5.961970   6.753838   8.136257   7.041051
    31  H    5.721411   8.126540   8.926635  10.311003   9.183256
    32  H    5.058473   7.485115   8.044922   9.678582   8.679613
    33  H    5.815286   7.997167   8.858251  10.064503   8.939053
    34  H    6.451755   8.743876   9.386577  10.862614   9.832655
    35  H    5.591731   7.491918   8.076805   9.413684   8.481281
    36  H    4.976445   7.063979   7.466535   9.091563   8.224505
    37  H    3.344613   5.013260   5.541479   6.914612   6.044125
    38  H    3.782414   5.569101   6.447178   7.498243   6.428069
    39  H    7.734892   8.457939   9.866930   9.612795   8.407021
    40  H    6.026669   6.860253   8.175270   8.183674   6.993447
    41  H    4.270104   4.531027   5.849474   5.728636   4.558876
    42  H    5.631140   3.195410   3.098173   1.022400   2.105842
    43  H    5.601747   4.503029   5.734215   4.535725   3.656329
    44  H    6.895082   6.554142   7.911880   7.014855   6.002149
    45  S    8.715315   8.974424  10.395059   9.751621   8.640340
    46  O    9.138733   9.079299  10.454366   9.587228   8.580690
    47  O    8.880031   9.492699  10.918896  10.521676   9.340280
    48  H    9.878649   9.873327  11.258496  10.380786   9.375726
    49  N    9.913894  10.124833  11.538465  10.803735   9.732445
    50  H    9.852573  10.250111  11.669071  11.074326   9.959401
                   21         22         23         24         25
    21  N    0.000000
    22  N    2.134046   0.000000
    23  C    3.447827   1.403910   0.000000
    24  C    4.555724   2.424872   1.396083   0.000000
    25  H    4.458595   6.578412   7.818589   8.991819   0.000000
    26  H    4.748437   4.478018   4.429383   5.317302   7.175503
    27  H    4.420942   4.243253   4.130107   5.282537   6.857366
    28  H    6.471389   6.835825   6.923122   7.981821   7.286222
    29  H    6.850443   6.239752   5.757709   6.419557   9.221838
    30  H    7.127835   6.912568   6.731691   7.437156   8.822877
    31  H    9.157844   8.650334   8.138881   8.719069  11.006549
    32  H    8.919563   8.822116   8.553128   9.348747  10.072705
    33  H    8.817672   8.224975   7.564308   8.272481  10.874159
    34  H    9.926341   9.599351   9.082076   9.860117  11.377630
    35  H    8.625466   8.509631   8.102976   9.107069   9.919307
    36  H    8.584922   8.740328   8.535991   9.581997   9.342220
    37  H    6.372061   6.677299   6.629368   7.835693   7.383769
    38  H    6.375666   6.106722   5.715380   6.762106   8.369043
    39  H    7.263030   5.289634   3.886297   3.402288  11.447314
    40  H    6.097847   4.594590   3.412275   3.873220   9.821259
    41  H    3.724574   2.685536   2.155310   3.388887   7.397382
    42  H    2.836760   4.881784   6.226615   7.259592   2.452915
    43  H    2.233810   1.010755   2.072826   2.739348   6.614212
    44  H    4.637525   2.640100   2.140585   1.077310   9.046072
    45  S    7.319766   5.198229   4.082915   2.779879  11.743367
    46  O    7.221067   5.197133   4.389831   2.995648  11.617026
    47  O    8.114625   6.040545   4.884744   3.724940  12.429108
    48  H    7.994633   5.930269   4.820898   3.736820  12.425742
    49  N    8.378144   6.259271   5.069279   3.904988  12.824778
    50  H    8.653595   6.546855   5.248733   4.248803  13.050328
                   26         27         28         29         30
    26  H    0.000000
    27  H    1.764980   0.000000
    28  H    2.833549   2.958199   0.000000
    29  H    2.260529   2.877592   3.045978   0.000000
    30  H    2.464346   3.619822   2.419370   1.744803   0.000000
    31  H    4.473139   5.030005   3.910104   2.411475   2.522842
    32  H    4.446797   4.865068   2.804760   2.998732   2.413372
    33  H    4.756338   4.419240   4.197160   2.827212   3.920541
    34  H    5.738478   5.528343   4.324337   3.893295   4.321549
    35  H    5.399460   4.448599   3.944684   4.295692   5.017706
    36  H    5.060775   4.504570   2.852340   4.125320   4.212022
    37  H    3.864874   2.680916   2.459151   3.940694   4.336958
    38  H    3.349066   2.126392   3.075998   2.891296   3.952630
    39  H    6.177188   5.880855   8.418311   6.058466   7.597437
    40  H    4.818242   3.947713   6.588277   4.776852   6.371330
    41  H    3.730585   2.636276   5.591485   4.792354   5.925148
    42  H    6.973702   6.608291   7.954022   9.141350   9.088140
    43  H    5.453201   5.193721   7.752575   7.249852   7.889484
    44  H    5.921100   6.057064   8.645454   7.191741   8.050831
    45  S    7.211209   7.379701   9.899173   7.656346   8.835463
    46  O    7.805957   8.073623  10.586468   8.569452   9.572525
    47  O    7.141950   7.522845   9.770903   7.236098   8.401891
    48  H    8.599480   8.346322  11.119762   9.046434  10.395478
    49  N    8.461590   8.359974  11.009306   8.728066  10.078117
    50  H    8.335810   8.144297  10.751764   8.369755   9.822682
                   31         32         33         34         35
    31  H    0.000000
    32  H    1.740784   0.000000
    33  H    2.452210   3.025141   0.000000
    34  H    2.518297   2.419776   1.746709   0.000000
    35  H    4.305757   3.812732   2.455804   2.519545   0.000000
    36  H    3.842745   2.706464   3.039480   2.437479   1.722367
    37  H    4.999885   4.180127   3.908449   4.329721   2.542888
    38  H    4.254521   4.077681   2.790449   3.868706   2.416879
    39  H    7.851305   8.911386   6.936122   8.675748   8.190379
    40  H    6.696524   7.400513   5.338371   7.038435   6.053647
    41  H    7.077177   7.288846   6.052915   7.512301   6.174787
    42  H   11.263776  10.677214  10.975662  11.826833  10.329551
    43  H    9.660173   9.812555   9.209209  10.587706   9.420427
    44  H    9.492934  10.094197   9.215785  10.765106  10.058855
    45  S    9.608296  10.645110   9.246938  10.920057  10.577400
    46  O   10.619560  11.554327  10.400005  12.035502  11.633800
    47  O    8.944920  10.150039   8.792898  10.422807  10.411914
    48  H   11.026448  12.002502  10.218135  11.952421  11.260725
    49  N   10.592823  11.681260   9.914996  11.642551  11.163982
    50  H   10.117237  11.260555   9.307601  11.043131  10.594388
                   36         37         38         39         40
    36  H    0.000000
    37  H    2.432291   0.000000
    38  H    3.000580   1.741085   0.000000
    39  H    9.104112   7.898524   6.329527   0.000000
    40  H    7.048273   5.630140   4.132793   2.466855   0.000000
    41  H    6.759176   4.737673   3.850891   4.265556   2.458405
    42  H   10.071238   7.850738   8.380346  10.043287   8.739146
    43  H    9.669130   7.535711   7.034607   5.836775   5.328270
    44  H   10.436345   8.661039   7.684482   4.294535   4.950509
    45  S   11.210182   9.836460   8.456406   2.901794   4.916048
    46  O   12.155074  10.642438   9.401790   4.273901   6.036096
    47  O   10.996575   9.912359   8.435258   3.000726   5.166746
    48  H   12.140345  10.591503   9.222276   3.344959   5.222043
    49  N   12.012807  10.629078   9.176552   3.020115   5.229420
    50  H   11.534932  10.266058   8.737329   2.430955   4.735674
                   41         42         43         44         45
    41  H    0.000000
    42  H    6.295869   0.000000
    43  H    3.483922   4.628480   0.000000
    44  H    4.280680   7.170943   2.647689   0.000000
    45  S    5.654776   9.990007   5.408324   2.915285   0.000000
    46  O    6.299278   9.702436   5.174130   2.583692   1.463261
    47  O    6.217072  10.863650   6.420722   3.958950   1.465137
    48  H    6.126796  10.495804   5.924629   3.946550   2.230222
    49  N    6.360592  10.987841   6.375133   4.148587   1.709787
    50  H    6.223093  11.327013   6.779635   4.707912   2.263686
                   46         47         48         49         50
    46  O    0.000000
    47  O    2.555781   0.000000
    48  H    2.722153   3.382887   0.000000
    49  N    2.546833   2.534666   1.030961   0.000000
    50  H    3.414151   2.685556   1.665490   1.016634   0.000000
 Stoichiometry    C18H22N6O3S
 Framework group  C1[X(C18H22N6O3S)]
 Deg. of freedom   144
 Full point group                 C1      NOp   1
 Largest Abelian subgroup         C1      NOp   1
 Largest concise Abelian subgroup C1      NOp   1
                         Standard orientation:                         
 ---------------------------------------------------------------------
 Center     Atomic      Atomic             Coordinates (Angstroms)
 Number     Number       Type             X           Y           Z
 ---------------------------------------------------------------------
      1          6           0        0.277415   -2.229158    0.014687
      2          6           0        4.068214   -4.510651    0.050170
      3          6           0        2.423135    0.908221   -0.491411
      4          6           0        3.333959    2.159024   -0.421483
      5          6           0        2.697733    3.226036   -1.336216
      6          6           0        3.252906    4.643028   -1.112918
      7          6           0        3.327760    5.105932    0.349287
      8          6           0        3.999164    4.044770    1.250119
      9          6           0        3.444178    2.616865    1.067587
     10          6           0       -3.816951    0.211951    0.228083
     11          6           0       -3.273282    1.241007    1.003150
     12          6           0       -1.990750    1.116724    1.529983
     13          6           0       -1.245879   -0.033319    1.273381
     14          7           0        1.179323   -1.137457   -0.344929
     15          6           0        2.456873   -1.292230   -0.461718
     16          8           0        3.241943   -0.251364   -0.785911
     17          6           0        3.001134   -2.619627   -0.247144
     18          7           0        4.265724   -3.297101   -0.251149
     19          7           0        2.796245   -4.752888    0.256988
     20          6           0        2.176567   -3.625142    0.073840
     21          7           0        0.780725   -3.378561    0.212341
     22          7           0       -1.008065   -2.214990    0.190274
     23          6           0       -1.767867   -1.073092    0.489827
     24          6           0       -3.067217   -0.949476   -0.005611
     25          1           0        4.813902   -5.276816    0.116520
     26          1           0        1.695430    1.028028   -1.301903
     27          1           0        1.859038    0.902213    0.450968
     28          1           0        4.332460    1.935450   -0.800249
     29          1           0        1.622758    3.282217   -1.149120
     30          1           0        2.806684    2.942488   -2.384936
     31          1           0        2.695477    5.369311   -1.704572
     32          1           0        4.267830    4.649592   -1.504474
     33          1           0        2.316575    5.289653    0.716878
     34          1           0        3.857837    6.056482    0.421112
     35          1           0        3.964477    4.365104    2.285509
     36          1           0        5.063019    4.019751    1.004694
     37          1           0        4.041209    1.906336    1.641420
     38          1           0        2.459598    2.627138    1.539776
     39          1           0       -3.841768    2.135445    1.202238
     40          1           0       -1.567569    1.911667    2.131386
     41          1           0       -0.245843   -0.110021    1.673591
     42          1           0        2.418294   -5.682371    0.453243
     43          1           0       -1.431920   -3.114957    0.369253
     44          1           0       -3.485717   -1.749288   -0.593621
     45         16           0       -5.443406    0.408527   -0.492729
     46          8           0       -5.871671   -0.872340   -1.055848
     47          8           0       -5.420969    1.631601   -1.299086
     48          1           0       -6.369352   -0.036916    1.486689
     49          7           0       -6.491277    0.737867    0.817566
     50          1           0       -6.213630    1.606620    1.266703
 ---------------------------------------------------------------------
 Rotational constants (GHZ):           0.1701309           0.0914980           0.0633519
 Leave Link  202 at Thu Jan 30 14:39:51 2025, MaxMem=   104857600 cpu:               0.0 elap:               0.0
 (Enter /home/pb777/GAUSSIAN/g16/l301.exe)
 Standard basis: 6-31G(d) (6D, 7F)
 Ernie: Thresh=  0.10000D-02 Tol=  0.10000D-05 Strict=F.
 There are   468 symmetry adapted cartesian basis functions of A   symmetry.
 There are   468 symmetry adapted basis functions of A   symmetry.
   468 basis functions,   896 primitive gaussians,   468 cartesian basis functions
   106 alpha electrons      106 beta electrons
       nuclear repulsion energy      2716.5147176595 Hartrees.
 IExCor=    0 DFT=F Ex=HF Corr=None ExCW=0 ScaHFX=  1.000000
 ScaDFX=  1.000000  1.000000  1.000000  1.000000 ScalE2=  1.000000  1.000000
 IRadAn=      5 IRanWt=     -1 IRanGd=            0 ICorTp=0 IEmpDi=  4
 NAtoms=   50 NActive=   50 NUniq=   50 SFac= 1.00D+00 NAtFMM=   60 NAOKFM=F Big=F
 Integral buffers will be    131072 words long.
 Raffenetti 1 integral format.
 Two-electron integral symmetry is turned on.
 Leave Link  301 at Thu Jan 30 14:39:51 2025, MaxMem=   104857600 cpu:               0.0 elap:               0.0
 (Enter /home/pb777/GAUSSIAN/g16/l302.exe)
 NPDir=0 NMtPBC=     1 NCelOv=     1 NCel=       1 NClECP=     1 NCelD=      1
         NCelK=      1 NCelE2=     1 NClLst=     1 CellRange=     0.0.
 One-electron integrals computed using PRISM.
 One-electron integral symmetry used in STVInt
 NBasis=   468 RedAO= T EigKep=  4.32D-04  NBF=   468
 NBsUse=   468 1.00D-06 EigRej= -1.00D+00 NBFU=   468
 Leave Link  302 at Thu Jan 30 14:39:51 2025, MaxMem=   104857600 cpu:               0.2 elap:               0.2
 (Enter /home/pb777/GAUSSIAN/g16/l303.exe)
 DipDrv:  MaxL=1.
 Leave Link  303 at Thu Jan 30 14:39:51 2025, MaxMem=   104857600 cpu:               0.0 elap:               0.0
 (Enter /home/pb777/GAUSSIAN/g16/l401.exe)
 ExpMin= 1.17D-01 ExpMax= 2.19D+04 ExpMxC= 3.30D+03 IAcc=3 IRadAn=         5 AccDes= 0.00D+00
 Harris functional with IExCor=  205 and IRadAn=       5 diagonalized for initial guess.
 HarFok:  IExCor=  205 AccDes= 0.00D+00 IRadAn=         5 IDoV= 1 UseB2=F ITyADJ=14
 ICtDFT=  3500011 ScaDFX=  1.000000  1.000000  1.000000  1.000000
 FoFCou: FMM=F IPFlag=           0 FMFlag=      100000 FMFlg1=           0
         NFxFlg=           0 DoJE=T BraDBF=F KetDBF=T FulRan=T
         wScrn=  0.000000 ICntrl=       500 IOpCl=  0 I1Cent=   200000004 NGrid=           0
         NMat0=    1 NMatS0=      1 NMatT0=    0 NMatD0=    1 NMtDS0=    0 NMtDT0=    0
 Petite list used in FoFCou.
 Harris En= -1644.27902981892    
 JPrj=0 DoOrth=F DoCkMO=F.
 Leave Link  401 at Thu Jan 30 14:39:59 2025, MaxMem=   104857600 cpu:               8.3 elap:               8.3
 (Enter /home/pb777/GAUSSIAN/g16/l502.exe)
 Integral symmetry usage will be decided dynamically.
 Closed shell SCF:
 Using DIIS extrapolation, IDIIS=  1040.
 NGot=   104857600 LenX=   104411589 LenY=   104192097
 Requested convergence on RMS density matrix=1.00D-08 within 128 cycles.
 Requested convergence on MAX density matrix=1.00D-06.
 Requested convergence on             energy=1.00D-06.
 No special actions if energy rises.
 Fock matrices will be formed incrementally for  20 cycles.
 Integral accuracy reduced to 1.0D-05 until final iterations.

 Cycle   1  Pass 0  IDiag  1:
 FoFJK:  IHMeth= 1 ICntrl=       0 DoSepK=F KAlg= 0 I1Cent=           0 FoldK=F
 IRaf= 650000000 NMat=       1 IRICut=       1 DoRegI=T DoRafI=F ISym2E= 0 IDoP0=0 IntGTp=1.
 FoFCou: FMM=F IPFlag=           0 FMFlag=      100000 FMFlg1=           0
         NFxFlg=           0 DoJE=F BraDBF=F KetDBF=F FulRan=T
         wScrn=  0.000000 ICntrl=         0 IOpCl=  0 I1Cent=           0 NGrid=           0
         NMat0=    1 NMatS0=      1 NMatT0=    0 NMatD0=    1 NMtDS0=    0 NMtDT0=    0
 Symmetry not used in FoFCou.
 E= -1641.94151025849    
 DIIS: error= 5.72D-02 at cycle   1 NSaved=   1.
 NSaved= 1 IEnMin= 1 EnMin= -1641.94151025849     IErMin= 1 ErrMin= 5.72D-02
 ErrMax= 5.72D-02  0.00D+00 EMaxC= 1.00D-01 BMatC= 2.00D+00 BMatP= 2.00D+00
 IDIUse=3 WtCom= 4.28D-01 WtEn= 5.72D-01
 Coeff-Com:  0.100D+01
 Coeff-En:   0.100D+01
 Coeff:      0.100D+01
 Gap=     0.404 Goal=   None    Shift=    0.000
 GapD=    0.404 DampG=2.000 DampE=0.500 DampFc=1.0000 IDamp=-1.
 RMSDP=3.60D-03 MaxDP=1.91D-01              OVMax= 1.32D-01

 Cycle   2  Pass 0  IDiag  1:
 RMSU=  3.54D-03    CP:  9.61D-01
 E= -1642.84136227139     Delta-E=       -0.899852012902 Rises=F Damp=F
 DIIS: error= 1.65D-02 at cycle   2 NSaved=   2.
 NSaved= 2 IEnMin= 2 EnMin= -1642.84136227139     IErMin= 2 ErrMin= 1.65D-02
 ErrMax= 1.65D-02  0.00D+00 EMaxC= 1.00D-01 BMatC= 2.96D-01 BMatP= 2.00D+00
 IDIUse=3 WtCom= 8.35D-01 WtEn= 1.65D-01
 Coeff-Com:  0.208D+00 0.792D+00
 Coeff-En:   0.000D+00 0.100D+01
 Coeff:      0.174D+00 0.826D+00
 Gap=     0.410 Goal=   None    Shift=    0.000
 RMSDP=1.48D-03 MaxDP=1.79D-01 DE=-9.00D-01 OVMax= 6.53D-02

 Cycle   3  Pass 0  IDiag  1:
 RMSU=  1.22D-03    CP:  9.63D-01  7.62D-01
 E= -1643.04670232581     Delta-E=       -0.205340054415 Rises=F Damp=F
 DIIS: error= 8.07D-03 at cycle   3 NSaved=   3.
 NSaved= 3 IEnMin= 3 EnMin= -1643.04670232581     IErMin= 3 ErrMin= 8.07D-03
 ErrMax= 8.07D-03  0.00D+00 EMaxC= 1.00D-01 BMatC= 4.45D-02 BMatP= 2.96D-01
 IDIUse=3 WtCom= 9.19D-01 WtEn= 8.07D-02
 Coeff-Com: -0.192D-01 0.253D+00 0.766D+00
 Coeff-En:   0.000D+00 0.000D+00 0.100D+01
 Coeff:     -0.177D-01 0.233D+00 0.785D+00
 Gap=     0.383 Goal=   None    Shift=    0.000
 RMSDP=4.45D-04 MaxDP=5.41D-02 DE=-2.05D-01 OVMax= 3.02D-02

 Cycle   4  Pass 0  IDiag  1:
 RMSU=  2.67D-04    CP:  9.63D-01  8.39D-01  8.16D-01
 E= -1643.08120288794     Delta-E=       -0.034500562135 Rises=F Damp=F
 DIIS: error= 1.81D-03 at cycle   4 NSaved=   4.
 NSaved= 4 IEnMin= 4 EnMin= -1643.08120288794     IErMin= 4 ErrMin= 1.81D-03
 ErrMax= 1.81D-03  0.00D+00 EMaxC= 1.00D-01 BMatC= 2.10D-03 BMatP= 4.45D-02
 IDIUse=3 WtCom= 9.82D-01 WtEn= 1.81D-02
 Coeff-Com: -0.109D-01 0.463D-01 0.250D+00 0.714D+00
 Coeff-En:   0.000D+00 0.000D+00 0.000D+00 0.100D+01
 Coeff:     -0.107D-01 0.455D-01 0.246D+00 0.719D+00
 Gap=     0.387 Goal=   None    Shift=    0.000
 RMSDP=1.10D-04 MaxDP=8.06D-03 DE=-3.45D-02 OVMax= 7.70D-03

 Cycle   5  Pass 0  IDiag  1:
 RMSU=  7.45D-05    CP:  9.62D-01  8.39D-01  8.70D-01  8.26D-01
 E= -1643.08316494570     Delta-E=       -0.001962057757 Rises=F Damp=F
 DIIS: error= 4.35D-04 at cycle   5 NSaved=   5.
 NSaved= 5 IEnMin= 5 EnMin= -1643.08316494570     IErMin= 5 ErrMin= 4.35D-04
 ErrMax= 4.35D-04  0.00D+00 EMaxC= 1.00D-01 BMatC= 1.20D-04 BMatP= 2.10D-03
 IDIUse=3 WtCom= 9.96D-01 WtEn= 4.35D-03
 Coeff-Com:  0.922D-03-0.178D-01-0.518D-01 0.664D-01 0.100D+01
 Coeff-En:   0.000D+00 0.000D+00 0.000D+00 0.000D+00 0.100D+01
 Coeff:      0.918D-03-0.177D-01-0.516D-01 0.661D-01 0.100D+01
 Gap=     0.386 Goal=   None    Shift=    0.000
 RMSDP=4.26D-05 MaxDP=1.66D-03 DE=-1.96D-03 OVMax= 4.30D-03

 Cycle   6  Pass 0  IDiag  1:
 RMSU=  2.67D-05    CP:  9.62D-01  8.40D-01  8.82D-01  9.29D-01  1.13D+00
 E= -1643.08338753928     Delta-E=       -0.000222593580 Rises=F Damp=F
 DIIS: error= 2.18D-04 at cycle   6 NSaved=   6.
 NSaved= 6 IEnMin= 6 EnMin= -1643.08338753928     IErMin= 6 ErrMin= 2.18D-04
 ErrMax= 2.18D-04  0.00D+00 EMaxC= 1.00D-01 BMatC= 1.57D-05 BMatP= 1.20D-04
 IDIUse=3 WtCom= 9.98D-01 WtEn= 2.18D-03
 Coeff-Com:  0.130D-02-0.841D-02-0.370D-01-0.701D-01 0.149D+00 0.965D+00
 Coeff-En:   0.000D+00 0.000D+00 0.000D+00 0.000D+00 0.000D+00 0.100D+01
 Coeff:      0.130D-02-0.839D-02-0.369D-01-0.699D-01 0.149D+00 0.965D+00
 Gap=     0.387 Goal=   None    Shift=    0.000
 RMSDP=1.79D-05 MaxDP=9.67D-04 DE=-2.23D-04 OVMax= 2.29D-03

 Cycle   7  Pass 0  IDiag  1:
 RMSU=  1.00D-05    CP:  9.62D-01  8.40D-01  8.86D-01  9.52D-01  1.30D+00
                    CP:  1.13D+00
 E= -1643.08342987321     Delta-E=       -0.000042333932 Rises=F Damp=F
 DIIS: error= 7.30D-05 at cycle   7 NSaved=   7.
 NSaved= 7 IEnMin= 7 EnMin= -1643.08342987321     IErMin= 7 ErrMin= 7.30D-05
 ErrMax= 7.30D-05  0.00D+00 EMaxC= 1.00D-01 BMatC= 3.00D-06 BMatP= 1.57D-05
 IDIUse=1 WtCom= 1.00D+00 WtEn= 0.00D+00
 Coeff-Com:  0.308D-04 0.132D-02 0.287D-02-0.174D-01-0.120D+00 0.114D+00
 Coeff-Com:  0.102D+01
 Coeff:      0.308D-04 0.132D-02 0.287D-02-0.174D-01-0.120D+00 0.114D+00
 Coeff:      0.102D+01
 Gap=     0.387 Goal=   None    Shift=    0.000
 RMSDP=8.44D-06 MaxDP=2.94D-04 DE=-4.23D-05 OVMax= 1.41D-03

 Initial convergence to 1.0D-05 achieved.  Increase integral accuracy.
 Cycle   8  Pass 1  IDiag  1:
 E= -1643.08344086770     Delta-E=       -0.000010994489 Rises=F Damp=F
 DIIS: error= 8.08D-05 at cycle   1 NSaved=   1.
 NSaved= 1 IEnMin= 1 EnMin= -1643.08344086770     IErMin= 1 ErrMin= 8.08D-05
 ErrMax= 8.08D-05  0.00D+00 EMaxC= 1.00D-01 BMatC= 1.92D-06 BMatP= 1.92D-06
 IDIUse=1 WtCom= 1.00D+00 WtEn= 0.00D+00
 Coeff-Com:  0.100D+01
 Coeff:      0.100D+01
 Gap=     0.387 Goal=   None    Shift=    0.000
 RMSDP=8.44D-06 MaxDP=2.94D-04 DE=-1.10D-05 OVMax= 6.06D-04

 Cycle   9  Pass 1  IDiag  1:
 RMSU=  2.49D-05    CP:  1.00D+00
 E= -1643.08344371383     Delta-E=       -0.000002846127 Rises=F Damp=F
 DIIS: error= 2.85D-05 at cycle   2 NSaved=   2.
 NSaved= 2 IEnMin= 2 EnMin= -1643.08344371383     IErMin= 2 ErrMin= 2.85D-05
 ErrMax= 2.85D-05  0.00D+00 EMaxC= 1.00D-01 BMatC= 3.10D-07 BMatP= 1.92D-06
 IDIUse=1 WtCom= 1.00D+00 WtEn= 0.00D+00
 Coeff-Com:  0.700D-01 0.930D+00
 Coeff:      0.700D-01 0.930D+00
 Gap=     0.387 Goal=   None    Shift=    0.000
 RMSDP=2.41D-06 MaxDP=8.11D-05 DE=-2.85D-06 OVMax= 4.34D-04

 Cycle  10  Pass 1  IDiag  1:
 RMSU=  2.10D-06    CP:  1.00D+00  1.05D+00
 E= -1643.08344449409     Delta-E=       -0.000000780258 Rises=F Damp=F
 DIIS: error= 1.79D-05 at cycle   3 NSaved=   3.
 NSaved= 3 IEnMin= 3 EnMin= -1643.08344449409     IErMin= 3 ErrMin= 1.79D-05
 ErrMax= 1.79D-05  0.00D+00 EMaxC= 1.00D-01 BMatC= 1.39D-07 BMatP= 3.10D-07
 IDIUse=1 WtCom= 1.00D+00 WtEn= 0.00D+00
 Coeff-Com: -0.984D-01 0.270D+00 0.828D+00
 Coeff:     -0.984D-01 0.270D+00 0.828D+00
 Gap=     0.387 Goal=   None    Shift=    0.000
 RMSDP=1.38D-06 MaxDP=6.66D-05 DE=-7.80D-07 OVMax= 2.69D-04

 Cycle  11  Pass 1  IDiag  1:
 RMSU=  1.25D-06    CP:  1.00D+00  1.06D+00  1.21D+00
 E= -1643.08344489938     Delta-E=       -0.000000405288 Rises=F Damp=F
 DIIS: error= 1.10D-05 at cycle   4 NSaved=   4.
 NSaved= 4 IEnMin= 4 EnMin= -1643.08344489938     IErMin= 4 ErrMin= 1.10D-05
 ErrMax= 1.10D-05  0.00D+00 EMaxC= 1.00D-01 BMatC= 4.03D-08 BMatP= 1.39D-07
 IDIUse=1 WtCom= 1.00D+00 WtEn= 0.00D+00
 Coeff-Com:  0.174D-01-0.566D+00-0.363D+00 0.191D+01
 Coeff:      0.174D-01-0.566D+00-0.363D+00 0.191D+01
 Gap=     0.387 Goal=   None    Shift=    0.000
 RMSDP=2.08D-06 MaxDP=8.31D-05 DE=-4.05D-07 OVMax= 4.18D-04

 Cycle  12  Pass 1  IDiag  1:
 RMSU=  4.05D-07    CP:  1.00D+00  1.07D+00  1.97D+00  2.01D+00
 E= -1643.08344517785     Delta-E=       -0.000000278478 Rises=F Damp=F
 DIIS: error= 1.76D-06 at cycle   5 NSaved=   5.
 NSaved= 5 IEnMin= 5 EnMin= -1643.08344517785     IErMin= 5 ErrMin= 1.76D-06
 ErrMax= 1.76D-06  0.00D+00 EMaxC= 1.00D-01 BMatC= 2.46D-09 BMatP= 4.03D-08
 IDIUse=1 WtCom= 1.00D+00 WtEn= 0.00D+00
 Coeff-Com:  0.120D-01-0.190D+00-0.169D+00 0.574D+00 0.773D+00
 Coeff:      0.120D-01-0.190D+00-0.169D+00 0.574D+00 0.773D+00
 Gap=     0.387 Goal=   None    Shift=    0.000
 RMSDP=2.52D-07 MaxDP=9.20D-06 DE=-2.78D-07 OVMax= 4.61D-05

 Cycle  13  Pass 1  IDiag  1:
 RMSU=  1.16D-07    CP:  1.00D+00  1.07D+00  2.04D+00  2.15D+00  1.09D+00
 E= -1643.08344518442     Delta-E=       -0.000000006563 Rises=F Damp=F
 DIIS: error= 8.89D-07 at cycle   6 NSaved=   6.
 NSaved= 6 IEnMin= 6 EnMin= -1643.08344518442     IErMin= 6 ErrMin= 8.89D-07
 ErrMax= 8.89D-07  0.00D+00 EMaxC= 1.00D-01 BMatC= 3.16D-10 BMatP= 2.46D-09
 IDIUse=1 WtCom= 1.00D+00 WtEn= 0.00D+00
 Coeff-Com: -0.443D-02 0.118D+00 0.784D-01-0.383D+00-0.911D-01 0.128D+01
 Coeff:     -0.443D-02 0.118D+00 0.784D-01-0.383D+00-0.911D-01 0.128D+01
 Gap=     0.387 Goal=   None    Shift=    0.000
 RMSDP=1.11D-07 MaxDP=3.61D-06 DE=-6.56D-09 OVMax= 1.62D-05

 Cycle  14  Pass 1  IDiag  1:
 RMSU=  6.26D-08    CP:  1.00D+00  1.07D+00  2.05D+00  2.18D+00  1.25D+00
                    CP:  1.34D+00
 E= -1643.08344518552     Delta-E=       -0.000000001106 Rises=F Damp=F
 DIIS: error= 3.23D-07 at cycle   7 NSaved=   7.
 NSaved= 7 IEnMin= 7 EnMin= -1643.08344518552     IErMin= 7 ErrMin= 3.23D-07
 ErrMax= 3.23D-07  0.00D+00 EMaxC= 1.00D-01 BMatC= 5.34D-11 BMatP= 3.16D-10
 IDIUse=1 WtCom= 1.00D+00 WtEn= 0.00D+00
 Coeff-Com: -0.305D-02 0.610D-01 0.458D-01-0.190D+00-0.139D+00 0.348D+00
 Coeff-Com:  0.877D+00
 Coeff:     -0.305D-02 0.610D-01 0.458D-01-0.190D+00-0.139D+00 0.348D+00
 Coeff:      0.877D+00
 Gap=     0.387 Goal=   None    Shift=    0.000
 RMSDP=3.57D-08 MaxDP=2.42D-06 DE=-1.11D-09 OVMax= 4.51D-06

 Cycle  15  Pass 1  IDiag  1:
 RMSU=  1.96D-08    CP:  1.00D+00  1.07D+00  2.06D+00  2.19D+00  1.28D+00
                    CP:  1.49D+00  1.25D+00
 E= -1643.08344518566     Delta-E=       -0.000000000138 Rises=F Damp=F
 DIIS: error= 1.42D-07 at cycle   8 NSaved=   8.
 NSaved= 8 IEnMin= 8 EnMin= -1643.08344518566     IErMin= 8 ErrMin= 1.42D-07
 ErrMax= 1.42D-07  0.00D+00 EMaxC= 1.00D-01 BMatC= 4.69D-12 BMatP= 5.34D-11
 IDIUse=1 WtCom= 1.00D+00 WtEn= 0.00D+00
 Coeff-Com:  0.477D-03-0.134D-01-0.936D-02 0.447D-01 0.859D-02-0.158D+00
 Coeff-Com:  0.414D-02 0.112D+01
 Coeff:      0.477D-03-0.134D-01-0.936D-02 0.447D-01 0.859D-02-0.158D+00
 Coeff:      0.414D-02 0.112D+01
 Gap=     0.387 Goal=   None    Shift=    0.000
 RMSDP=1.41D-08 MaxDP=6.09D-07 DE=-1.38D-10 OVMax= 1.51D-06

 Cycle  16  Pass 1  IDiag  1:
 RMSU=  6.73D-09    CP:  1.00D+00  1.07D+00  2.06D+00  2.19D+00  1.28D+00
                    CP:  1.52D+00  1.42D+00  1.20D+00
 E= -1643.08344518569     Delta-E=       -0.000000000031 Rises=F Damp=F
 DIIS: error= 3.64D-08 at cycle   9 NSaved=   9.
 NSaved= 9 IEnMin= 9 EnMin= -1643.08344518569     IErMin= 9 ErrMin= 3.64D-08
 ErrMax= 3.64D-08  0.00D+00 EMaxC= 1.00D-01 BMatC= 6.54D-13 BMatP= 4.69D-12
 IDIUse=1 WtCom= 1.00D+00 WtEn= 0.00D+00
 Coeff-Com:  0.373D-03-0.798D-02-0.607D-02 0.254D-01 0.155D-01-0.575D-01
 Coeff-Com: -0.994D-01 0.169D+00 0.960D+00
 Coeff:      0.373D-03-0.798D-02-0.607D-02 0.254D-01 0.155D-01-0.575D-01
 Coeff:     -0.994D-01 0.169D+00 0.960D+00
 Gap=     0.387 Goal=   None    Shift=    0.000
 RMSDP=3.97D-09 MaxDP=2.05D-07 DE=-3.09D-11 OVMax= 4.74D-07

 SCF Done:  E(RHF) =  -1643.08344519     A.U. after   16 cycles
            NFock= 16  Conv=0.40D-08     -V/T= 2.0017
 KE= 1.640230741062D+03 PE=-9.290017485357D+03 EE= 3.290188581451D+03
 Leave Link  502 at Thu Jan 30 14:42:06 2025, MaxMem=   104857600 cpu:             125.8 elap:             126.3
 (Enter /home/pb777/GAUSSIAN/g16/l801.exe)
 Range of M.O.s used for correlation:     1   468
 NBasis=   468 NAE=   106 NBE=   106 NFC=     0 NFV=     0
 NROrb=    468 NOA=   106 NOB=   106 NVA=   362 NVB=   362
 Leave Link  801 at Thu Jan 30 14:42:06 2025, MaxMem=   104857600 cpu:               0.0 elap:               0.0
 (Enter /home/pb777/GAUSSIAN/g16/l1101.exe)
 Using compressed storage, NAtomX=    50.
 Will process     51 centers per pass.
 Leave Link 1101 at Thu Jan 30 14:42:06 2025, MaxMem=   104857600 cpu:               0.4 elap:               0.4
 (Enter /home/pb777/GAUSSIAN/g16/l1102.exe)
 Symmetrizing basis deriv contribution to polar:
 IMax=3 JMax=2 DiffMx= 0.00D+00
 Leave Link 1102 at Thu Jan 30 14:42:06 2025, MaxMem=   104857600 cpu:               0.1 elap:               0.0
 (Enter /home/pb777/GAUSSIAN/g16/l1110.exe)
 Forming Gx(P) for the SCF density, NAtomX=    50.
 Integral derivatives from FoFJK, PRISM(SPDF).
 Do as many integral derivatives as possible in FoFJK.
 G2DrvN: MDV=     104853864.
 G2DrvN: will do    51 centers at a time, making    1 passes.
 Calling FoFCou, ICntrl=  3107 FMM=F I1Cent=   0 AccDes= 0.00D+00.
 FoFJK:  IHMeth= 1 ICntrl=    3107 DoSepK=F KAlg= 0 I1Cent=           0 FoldK=F
 IRaf=         0 NMat=       1 IRICut=       1 DoRegI=T DoRafI=F ISym2E= 0 IDoP0=0 IntGTp=1.
 FoFCou: FMM=F IPFlag=           0 FMFlag=      100000 FMFlg1=           0
         NFxFlg=           0 DoJE=F BraDBF=F KetDBF=F FulRan=T
[...]
 1367 Fit      -0.023697
 1368 Fit      -0.037748
 1369 Fit      -0.038184
 1370 Fit      -0.029886
 1371 Fit      -0.034029
 1372 Fit      -0.043412
 1373 Fit      -0.043839
 1374 Fit      -0.040248
 1375 Fit      -0.044300
 1376 Fit      -0.045443
 1377 Fit      -0.016657
 1378 Fit      -0.014993
 1379 Fit      -0.034585
 1380 Fit      -0.031326
 1381 Fit      -0.027990
 1382 Fit      -0.023527
 1383 Fit      -0.019088
 1384 Fit      -0.019787
 1385 Fit      -0.042101
 1386 Fit      -0.040116
 1387 Fit      -0.036899
 1388 Fit      -0.033931
 1389 Fit      -0.032593
 1390 Fit      -0.033355
 1391 Fit      -0.033883
 1392 Fit      -0.044558
 1393 Fit      -0.041782
 1394 Fit      -0.039833
 1395 Fit      -0.040716
 1396 Fit      -0.044185
 1397 Fit      -0.046474
 1398 Fit      -0.044133
 1399 Fit      -0.008882
 1400 Fit      -0.022977
 1401 Fit      -0.026073
 1402 Fit      -0.026489
 1403 Fit      -0.024808
 1404 Fit      -0.031072
 1405 Fit      -0.032855
 1406 Fit      -0.034015
 1407 Fit      -0.035348
 1408 Fit      -0.036628
 1409 Fit      -0.037418
 1410 Fit      -0.042668
 1411 Fit      -0.037045
 1412 Fit      -0.039453
 1413 Fit      -0.040313
 1414 Fit      -0.041499
 1415 Fit      -0.042775
 1416 Fit      -0.045770
 1417 Fit      -0.042466
 1418 Fit      -0.043745
 1419 Fit      -0.044955
 1420 Fit      -0.046102
 1421 Fit       0.032326
 1422 Fit       0.030899
 1423 Fit       0.030484
 1424 Fit       0.030051
 1425 Fit       0.023475
 1426 Fit       0.026663
 1427 Fit       0.028647
 1428 Fit       0.028204
 1429 Fit       0.010618
 1430 Fit       0.016338
 1431 Fit       0.019503
 1432 Fit       0.021925
 1433 Fit       0.000382
 1434 Fit       0.032447
 1435 Fit       0.031719
 1436 Fit       0.024354
 1437 Fit       0.022340
 1438 Fit       0.007393
 1439 Fit       0.011909
 1440 Fit       0.011202
 1441 Fit      -0.008865
 1442 Fit      -0.004888
 1443 Fit       0.004136
 1444 Fit      -0.003036
 1445 Fit      -0.007603
 1446 Fit      -0.022741
 1447 Fit      -0.018930
 1448 Fit      -0.012763
 1449 Fit      -0.011383
 1450 Fit      -0.023458
 1451 Fit      -0.022868
 1452 Fit      -0.032068
 1453 Fit      -0.030587
 1454 Fit      -0.034101
 1455 Fit       0.031197
 1456 Fit       0.029355
 1457 Fit       0.026292
 1458 Fit       0.029506
 1459 Fit       0.029378
 1460 Fit       0.020897
 1461 Fit       0.025746
 1462 Fit       0.023620
 1463 Fit       0.021811
 1464 Fit       0.010662
 1465 Fit       0.010449
 1466 Fit       0.007900
 1467 Fit       0.002008
 1468 Fit       0.002206
 1469 Fit       0.002284
 1470 Fit      -0.000810
 1471 Fit      -0.002304
 1472 Fit      -0.001136
 1473 Fit      -0.001580
 1474 Fit       0.003676
 1475 Fit       0.009048
 1476 Fit       0.013483
 1477 Fit       0.018395
 1478 Fit       0.006797
 1479 Fit      -0.006048
 1480 Fit       0.008875
 1481 Fit      -0.001147
 1482 Fit       0.021698
 1483 Fit       0.011330
 1484 Fit       0.002720
 1485 Fit      -0.002038
 1486 Fit       0.008310
 1487 Fit       0.010896
 1488 Fit       0.015644
 1489 Fit       0.003962
 1490 Fit       0.003207
 1491 Fit       0.003093
 1492 Fit       0.003750
 1493 Fit       0.005076
 1494 Fit       0.006040
 1495 Fit       0.002660
 1496 Fit       0.002862
 1497 Fit       0.002438
 1498 Fit       0.002655
 1499 Fit       0.003381
 1500 Fit       0.001899
 1501 Fit      -0.001083
 1502 Fit       0.001805
 1503 Fit      -0.003335
 1504 Fit       0.000110
 1505 Fit      -0.014674
 1506 Fit      -0.017354
 1507 Fit       0.016306
 1508 Fit       0.012733
 1509 Fit       0.014039
 1510 Fit       0.022858
 1511 Fit      -0.008568
 1512 Fit      -0.006980
 1513 Fit      -0.015416
 1514 Fit      -0.016143
 1515 Fit       0.010872
 1516 Fit       0.007632
 1517 Fit       0.011958
 1518 Fit       0.007716
 1519 Fit       0.004280
 1520 Fit       0.010467
 1521 Fit       0.013668
 1522 Fit       0.005442
 1523 Fit      -0.004112
 1524 Fit      -0.001727
 1525 Fit      -0.000033
 1526 Fit      -0.009542
 1527 Fit      -0.008298
 1528 Fit       0.005294
 1529 Fit       0.003047
 1530 Fit       0.010497
 1531 Fit       0.003463
 1532 Fit       0.002337
 1533 Fit       0.000306
 1534 Fit       0.005410
 1535 Fit      -0.003494
 1536 Fit      -0.002916
 1537 Fit      -0.008101
 1538 Fit       0.001913
 1539 Fit       0.001757
 1540 Fit       0.000759
 1541 Fit      -0.001859
 1542 Fit      -0.003290
 1543 Fit      -0.008782
 1544 Fit       0.002621
 1545 Fit      -0.000870
 1546 Fit       0.001808
 1547 Fit      -0.006057
 1548 Fit      -0.000078
 1549 Fit      -0.001731
 1550 Fit      -0.002273
 1551 Fit      -0.022827
 1552 Fit      -0.023192
 1553 Fit      -0.018607
 1554 Fit      -0.008524
 1555 Fit      -0.000220
 1556 Fit      -0.008856
 1557 Fit      -0.003940
 1558 Fit      -0.004172
 1559 Fit      -0.018809
 1560 Fit      -0.014729
 1561 Fit      -0.013001
 1562 Fit      -0.015391
 1563 Fit      -0.021451
 1564 Fit      -0.022263
 1565 Fit      -0.018465
 1566 Fit      -0.009615
 1567 Fit      -0.007266
 1568 Fit      -0.009463
 1569 Fit      -0.018528
 1570 Fit      -0.024634
 1571 Fit      -0.001807
 1572 Fit      -0.004946
 1573 Fit      -0.016677
 1574 Fit      -0.023838
 1575 Fit      -0.026860
 1576 Fit      -0.013327
 1577 Fit      -0.021119
 1578 Fit      -0.024482
 1579 Fit      -0.009314
 1580 Fit      -0.017166
 1581 Fit      -0.020134
 1582 Fit      -0.012540
 1583 Fit      -0.014645
 1584 Fit      -0.007610
 1585 Fit       0.007494
 1586 Fit       0.008869
 1587 Fit       0.015640
 1588 Fit       0.022193
 1589 Fit       0.010132
 1590 Fit       0.020144
 1591 Fit       0.023305
 1592 Fit      -0.001136
 1593 Fit       0.023752
 1594 Fit       0.013610
 1595 Fit       0.005606
 1596 Fit       0.019381
 1597 Fit       0.009869
 1598 Fit       0.008989
 1599 Fit       0.001261
 1600 Fit       0.002490
 1601 Fit      -0.001819
 1602 Fit       0.000155
 1603 Fit       0.000877
 1604 Fit      -0.000196
 1605 Fit       0.001768
 1606 Fit       0.001387
 1607 Fit       0.000395
 1608 Fit       0.008922
 1609 Fit       0.006535
 1610 Fit       0.000725
 1611 Fit       0.007526
 1612 Fit       0.001074
 1613 Fit       0.007037
 1614 Fit       0.000054
 1615 Fit       0.004669
 1616 Fit       0.004795
 1617 Fit      -0.000447
 1618 Fit      -0.003246
 1619 Fit      -0.001375
 1620 Fit      -0.002884
 1621 Fit      -0.004474
 1622 Fit      -0.003792
 1623 Fit      -0.002537
 1624 Fit       0.003487
 1625 Fit       0.003284
 1626 Fit       0.007488
 1627 Fit       0.004137
 1628 Fit       0.014655
 1629 Fit       0.011638
 1630 Fit      -0.005027
 1631 Fit      -0.003368
 1632 Fit      -0.004256
 1633 Fit       0.004315
 1634 Fit      -0.001888
 1635 Fit       0.004245
 1636 Fit       0.004490
 1637 Fit      -0.005912
 1638 Fit      -0.008077
 1639 Fit      -0.012424
 1640 Fit       0.016694
 1641 Fit       0.013351
 1642 Fit       0.017208
 1643 Fit       0.021160
 1644 Fit      -0.013684
 1645 Fit      -0.000718
 1646 Fit      -0.006996
 1647 Fit      -0.012483
 1648 Fit      -0.016631
 1649 Fit       0.009867
 1650 Fit       0.000930
 1651 Fit       0.017979
 1652 Fit       0.017801
 1653 Fit       0.014979
 1654 Fit       0.008831
 1655 Fit       0.024467
 1656 Fit       0.022238
 1657 Fit       0.019093
 1658 Fit       0.014338
 1659 Fit       0.006665
 1660 Fit       0.031041
 1661 Fit       0.025895
 1662 Fit       0.021547
 1663 Fit       0.016476
 1664 Fit       0.009359
 1665 Fit       0.030455
 1666 Fit       0.023001
 1667 Fit       0.016269
 1668 Fit       0.002585
 1669 Fit       0.006283
 1670 Fit       0.009249
 1671 Fit       0.011062
 1672 Fit       0.012057
 1673 Fit       0.003703
 1674 Fit       0.006147
 1675 Fit       0.000588
 1676 Fit       0.010734
 1677 Fit       0.007279
 1678 Fit       0.003430
 1679 Fit       0.014001
 1680 Fit       0.008996
 1681 Fit       0.005029
 1682 Fit       0.013247
 1683 Fit      -0.010338
 1684 Fit      -0.001709
 1685 Fit       0.003344
 1686 Fit      -0.013511
 1687 Fit      -0.003046
 1688 Fit       0.002340
 1689 Fit       0.005530
 1690 Fit      -0.008980
 1691 Fit      -0.000514
 1692 Fit       0.003939
 1693 Fit       0.006723
 1694 Fit       0.002991
 1695 Fit       0.007642
 1696 Fit       0.011093
 1697 Fit       0.008731
 1698 Fit       0.010023
 1699 Fit       0.012546
 1700 Fit       0.013881
 1701 Fit       0.009697
 1702 Fit       0.011291
 1703 Fit       0.014826
 1704 Fit       0.010646
 1705 Fit       0.013134
 1706 Fit       0.018873
 1707 Fit       0.015198
 1708 Fit       0.006076
 1709 Fit       0.006872
 1710 Fit       0.007925
 1711 Fit       0.009552
 1712 Fit       0.018035
 1713 Fit       0.008062
 1714 Fit       0.007294
 1715 Fit       0.007289
 1716 Fit       0.007948
 1717 Fit       0.009447
 1718 Fit       0.012841
 1719 Fit       0.013580
 1720 Fit       0.008870
 1721 Fit       0.008631
 1722 Fit       0.010194
 1723 Fit       0.010758
 1724 Fit       0.004197
 1725 Fit       0.004997
 1726 Fit       0.005686
 1727 Fit       0.006143
 1728 Fit       0.003985
 1729 Fit       0.005205
 1730 Fit       0.006197
 1731 Fit       0.006885
 1732 Fit       0.007563
 1733 Fit       0.003893
 1734 Fit       0.005283
 1735 Fit       0.006448
 1736 Fit       0.007342
 1737 Fit       0.008230
 1738 Fit       0.004143
 1739 Fit       0.005576
 1740 Fit       0.006912
 1741 Fit       0.008038
 1742 Fit       0.004341
 1743 Fit       0.004682
 1744 Fit       0.004138
 1745 Fit       0.003354
 1746 Fit       0.005225
 1747 Fit       0.004951
 1748 Fit       0.004423
 1749 Fit       0.003624
 1750 Fit       0.005545
 1751 Fit       0.005015
 1752 Fit       0.004354
 1753 Fit       0.006096
 1754 Fit       0.005716
 1755 Fit       0.004314
 1756 Fit       0.003941
 1757 Fit       0.003328
 1758 Fit       0.006070
 1759 Fit       0.005731
 1760 Fit       0.004027
 1761 Fit       0.005414
 1762 Fit       0.007920
 1763 Fit       0.007854
 1764 Fit       0.004656
 1765 Fit       0.005991
 1766 Fit       0.007233
 1767 Fit       0.010291
 1768 Fit       0.007581
 1769 Fit       0.009091
 1770 Fit       0.003160
 1771 Fit       0.002971
 1772 Fit       0.003698
 1773 Fit       0.003923
 1774 Fit       0.003096
 1775 Fit       0.003318
 1776 Fit       0.004231
 1777 Fit       0.004470
 1778 Fit       0.004070
 1779 Fit       0.003214
 1780 Fit       0.003845
 1781 Fit       0.004372
 1782 Fit       0.004456
 1783 Fit       0.004260
 1784 Fit       0.003899
 1785 Fit       0.004249
 1786 Fit       0.004223
 1787 Fit       0.003993
 1788 Fit       0.003400
 1789 Fit       0.003846
 1790 Fit       0.003367
 1791 Fit       0.002639
 1792 Fit       0.002479
 1793 Fit       0.002979
 1794 Fit       0.003396
 1795 Fit       0.004156
 1796 Fit       0.003352
 1797 Fit       0.002307
 1798 Fit       0.001427
 1799 Fit       0.000885
 1800 Fit       0.000852
 1801 Fit       0.001539
 1802 Fit       0.001018
 1803 Fit      -0.000240
 1804 Fit      -0.001069
 1805 Fit      -0.001409
 1806 Fit      -0.001221
 1807 Fit       0.000447
 1808 Fit       0.001863
 1809 Fit      -0.002084
 1810 Fit       0.000239
 1811 Fit       0.002016
 1812 Fit       0.003253
 1813 Fit      -0.003227
 1814 Fit       0.000211
 1815 Fit       0.002588
 1816 Fit       0.004261
 1817 Fit      -0.003115
 1818 Fit       0.001528
 1819 Fit       0.004580
 1820 Fit      -0.004081
 1821 Fit      -0.005395
 1822 Fit      -0.004901
 1823 Fit      -0.006660
 1824 Fit      -0.011523
 1825 Fit      -0.014022
 1826 Fit      -0.011725
 1827 Fit      -0.007495
 1828 Fit      -0.025747
 1829 Fit      -0.014450
 1830 Fit       0.005059
 1831 Fit       0.002854
 1832 Fit       0.006514
 1833 Fit       0.004069
 1834 Fit       0.000884
 1835 Fit       0.007988
 1836 Fit       0.008302
 1837 Fit       0.005574
 1838 Fit       0.001715
 1839 Fit       0.010009
 1840 Fit       0.011158
 1841 Fit       0.007361
 1842 Fit       0.002199
 1843 Fit       0.014259
 1844 Fit       0.012748
 1845 Fit       0.015634
 1846 Fit       0.008989
 1847 Fit       0.007462
 1848 Fit       0.007232
 1849 Fit       0.012460
 1850 Fit       0.001409
 1851 Fit       0.000771
 1852 Fit      -0.001825
 1853 Fit      -0.006064
 1854 Fit      -0.012118
 1855 Fit       0.014932
 1856 Fit       0.018717
 1857 Fit       0.016484
 1858 Fit       0.014551
 1859 Fit       0.016174
 1860 Fit       0.015433
 1861 Fit       0.014724
 1862 Fit       0.013449
 1863 Fit       0.014928
 1864 Fit       0.014023
 1865 Fit       0.013873
 1866 Fit       0.014122
 1867 Fit       0.014931
 1868 Fit       0.009581
 1869 Fit       0.010066
 1870 Fit       0.010731
 1871 Fit       0.012223
 1872 Fit       0.020429
 1873 Fit       0.027019
 1874 Fit       0.031478
 1875 Fit       0.035112
 1876 Fit       0.021653
 1877 Fit       0.028332
 1878 Fit       0.032044
 1879 Fit       0.033943
 1880 Fit       0.034288
 1881 Fit       0.023366
 1882 Fit       0.029136
 1883 Fit       0.031070
 1884 Fit       0.029669
 1885 Fit       0.014812
 1886 Fit       0.024582
 1887 Fit       0.025606
 1888 Fit       0.018190
 1889 Fit       0.017120
 1890 Fit       0.011432
 1891 Fit       0.015275
 1892 Fit       0.007330
 1893 Fit       0.013505
 1894 Fit       0.006199
 1895 Fit       0.012239
 1896 Fit       0.007343
 1897 Fit       0.007785
 1898 Fit       0.013941
 1899 Fit       0.019235
 1900 Fit       0.001506
 1901 Fit       0.010645
 1902 Fit      -0.007926
 1903 Fit       0.003797
 1904 Fit       0.007435
 1905 Fit      -0.010693
 1906 Fit      -0.027372
 1907 Fit      -0.020801
 1908 Fit      -0.030177
 1909 Fit      -0.031495
 1910 Fit      -0.033177
 1911 Fit      -0.024003
 1912 Fit      -0.021119
 1913 Fit      -0.023974
 1914 Fit      -0.034215
 1915 Fit      -0.035333
 1916 Fit      -0.028980
 1917 Fit      -0.031621
 1918 Fit      -0.038349
 1919 Fit      -0.039035
 1920 Fit      -0.036103
 1921 Fit      -0.038608
 1922 Fit      -0.040536
 1923 Fit      -0.039725
 1924 Fit      -0.003844
 1925 Fit      -0.020994
 1926 Fit      -0.018905
 1927 Fit      -0.015789
 1928 Fit      -0.009941
 1929 Fit      -0.031914
 1930 Fit      -0.029132
 1931 Fit      -0.026422
 1932 Fit      -0.023425
 1933 Fit      -0.020617
 1934 Fit      -0.020021
 1935 Fit      -0.022213
 1936 Fit      -0.037409
 1937 Fit      -0.035353
 1938 Fit      -0.032918
 1939 Fit      -0.030645
 1940 Fit      -0.029269
 1941 Fit      -0.029439
 1942 Fit      -0.030650
 1943 Fit      -0.038809
 1944 Fit      -0.036243
 1945 Fit      -0.034657
 1946 Fit      -0.035622
 1947 Fit      -0.038255
 1948 Fit       0.002050
 1949 Fit      -0.013034
 1950 Fit      -0.016028
 1951 Fit      -0.015110
 1952 Fit      -0.022129
 1953 Fit      -0.023788
 1954 Fit      -0.025463
 1955 Fit      -0.026510
 1956 Fit      -0.026818
 1957 Fit      -0.027197
 1958 Fit      -0.029489
 1959 Fit      -0.030468
 1960 Fit      -0.031338
 1961 Fit      -0.032344
 1962 Fit      -0.033337
 1963 Fit      -0.034164
 1964 Fit      -0.038299
 1965 Fit      -0.034097
 1966 Fit      -0.035098
 1967 Fit      -0.035838
 1968 Fit      -0.036784
 1969 Fit      -0.037711
 1970 Fit      -0.040456
 1971 Fit      -0.037943
 1972 Fit      -0.038193
 1973 Fit      -0.039199
 1974 Fit      -0.040573
 1975 Fit       0.026290
 1976 Fit       0.025645
 1977 Fit       0.021702
 1978 Fit       0.023622
 1979 Fit       0.024879
 1980 Fit       0.023795
 1981 Fit       0.013001
 1982 Fit       0.016596
 1983 Fit       0.019192
 1984 Fit       0.021344
 1985 Fit       0.006357
 1986 Fit       0.008833
 1987 Fit       0.009696
 1988 Fit       0.027188
 1989 Fit       0.026952
 1990 Fit       0.027972
 1991 Fit       0.025793
 1992 Fit       0.021130
 1993 Fit       0.021009
 1994 Fit       0.023454
 1995 Fit       0.010935
 1996 Fit       0.013649
 1997 Fit       0.013434
 1998 Fit      -0.000971
 1999 Fit       0.001849
 2000 Fit       0.008436
 2001 Fit       0.000094
 2002 Fit      -0.012526
 2003 Fit      -0.009815
 2004 Fit      -0.004667
 2005 Fit      -0.012975
 2006 Fit      -0.011427
 2007 Fit      -0.012560
 2008 Fit      -0.022187
 2009 Fit      -0.020025
 2010 Fit      -0.017666
 2011 Fit      -0.026083
 2012 Fit      -0.023257
 2013 Fit      -0.029625
 2014 Fit       0.026720
 2015 Fit       0.025608
 2016 Fit       0.022973
 2017 Fit       0.025135
 2018 Fit       0.025216
 2019 Fit       0.020225
 2020 Fit       0.022968
 2021 Fit       0.021335
 2022 Fit       0.020195
 2023 Fit       0.015948
 2024 Fit       0.013610
 2025 Fit       0.012663
 2026 Fit       0.011146
 2027 Fit      -0.002576
 2028 Fit      -0.000593
 -----------------------------------------------------------------
 Leave Link  602 at Thu Jan 30 18:00:15 2025, MaxMem=   104857600 cpu:               0.2 elap:               0.2
 (Enter /home/pb777/GAUSSIAN/g16/l9999.exe)

 Test job not archived.
 1\1\GINC-BUMBU\SP\RHF\6-31G(d)\C18H22N6O3S1\PB777\30-Jan-2025\0\\#P HF
 /6-31G* GEOM(AllCheck) Guess(Read) NoSymm Pop=mk IOp(6/33=2) GFInput G
 FPrint\\Gaussian Calculation\\0,1\C,0,1.579179839,28.8497499891,6.7998
 524587\C,0,-1.3106451075,31.7322501641,8.2931159811\C,0,-0.292851046,2
 6.2866120941,9.2668334634\C,0,-1.180243266,25.5860057941,10.2774081008
 \C,0,-0.8396465434,24.0936512286,10.3292339011\C,0,-1.7101072969,23.35
 40825948,11.3443228799\C,0,-1.61131338,23.9861084986,12.7315676593\C,0
 ,-1.9478153481,25.4753206091,12.6842398345\C,0,-1.0757856149,26.212886
 1314,11.6700749807\C,0,4.9766033937,25.8470196219,4.8671140957\C,0,4.5
 78269749,24.6907162596,5.5337337331\C,0,3.506023308,24.789482951,6.413
 0165515\C,0,2.8422166391,25.993599072,6.6246619937\N,0,0.9472634688,27
 .9999287287,7.6279888508\C,0,-0.0738090294,28.4538762875,8.345091536\O
 ,0,-0.7251823526,27.6474039216,9.1702837925\C,0,-0.4754043448,29.79414
 55727,8.2354712017\N,0,-1.464588841,30.5529101092,8.8243037465\N,0,-0.
 275423245,31.800129805,7.3859444561\C,0,0.2811016875,30.5528248076,7.3
 324903336\N,0,1.3075874012,30.1431751151,6.5945852614\N,0,2.6393209409
 ,28.3918982021,6.0525572067\C,0,3.2429710139,27.1474118823,5.934281943
 2\C,0,4.3283646905,27.0589425524,5.0486575331\H,0,-1.9176638181,32.600
 0333788,8.5176645416\H,0,-0.3631839429,25.8172112655,8.2779578818\H,0,
 0.75956867,26.2641235188,9.5780399521\H,0,-2.2199929445,25.6894340566,
 9.9305290664\H,0,0.21914791,23.9768510217,10.6084493778\H,0,-0.9530362
 326,23.6438366763,9.3336841714\H,0,-1.4234216035,22.2959870662,11.3835
 956833\H,0,-2.7566346401,23.3822219002,11.0075576\H,0,-0.5876667039,23
 .8589447223,13.1141398632\H,0,-2.2740727786,23.4655051578,13.433841823
 \H,0,-1.8311061876,25.9255645046,13.6776369021\H,0,-3.0053383698,25.59
 94413434,12.408633441\H,0,-1.3504594951,27.2722049354,11.6207873954\H,
 0,-0.0245668209,26.1720310531,11.9968091815\H,0,5.0766547943,23.746235
 5714,5.341753\H,0,3.1659978215,23.9047922056,6.9446718263\H,0,2.007169
 564,26.0559503019,7.3085083925\H,0,0.0237670503,32.6029305934,6.854179
 0051\H,0,3.0207535546,29.1239429676,5.4695492621\H,0,4.6542300416,27.9
 248665593,4.4775185494\S,0,6.3845184916,25.788905447,3.7715262821\O,0,
 6.3232328133,26.9659385646,2.9195346783\O,0,6.4768051528,24.4350707571
 ,3.2514587165\H,0,7.770953793,26.9079744639,5.1664439485\N,0,7.7386318
 999,25.9958402572,4.7232604674\H,0,7.8756252644,25.2350297179,5.380437
 4955\\Version=ES64L-G16RevA.03\HF=-1643.1937139\RMSD=4.065e-09\Dipole=
 -0.8159386,1.1441728,2.2938802\Quadrupole=-67.2116338,85.9110463,-18.6
 994124,-35.8859627,22.3562476,118.584439\PG=C01 [X(C18H22N6O3S1)]\\@


 KNOWING HOW CONTENTED, FREE, AND JOYFUL IS LIFE IN
 THE REALMS OF SCIENCE, ONE FERVENTLY WISHES THAT
 MANY WOULD ENTER HER PORTALS.
   --  DMITRI IVANOVICH MENDELEEV
 "FIRST PRINCIPLES OF CHEMISTRY", LONGMANS, GREEN,
 AND CO.  LONDON, 1891
 Job cpu time:       0 days  0 hours  2 minutes 24.0 seconds.
 Elapsed time:       0 days  0 hours  2 minutes 24.6 seconds.
 File lengths (MBytes):  RWF=    117 Int=      0 D2E=      0 Chk=     20 Scr=      1
 Normal termination of Gaussian 16 at Thu Jan 30 18:00:15 2025.
