 Entering Gaussian System, Link 0=/home/pb777/GAUSSIAN/g16/g16
 Initial command:
 /home/pb777/GAUSSIAN/g16/l1.exe "/home/pb777/GAUSSIAN/g16/scratch/Gau-1062464.inp" -scrdir="/home/pb777/GAUSSIAN/g16/scratch/"
 Entering Link 1 = /home/pb777/GAUSSIAN/g16/l1.exe PID=   1062465.
  
 Copyright (c) 1988,1990,1992,1993,1995,1998,2003,2009,2016,
            Gaussian, Inc.  All Rights Reserved.
  
 This is part of the Gaussian(R) 16 program.  It is based on
 the Gaussian(R) 09 system (copyright 2009, Gaussian, Inc.),
 the Gaussian(R) 03 system (copyright 2003, Gaussian, Inc.),
 the Gaussian(R) 98 system (copyright 1998, Gaussian, Inc.),
 the Gaussian(R) 94 system (copyright 1995, Gaussian, Inc.),
 the Gaussian 92(TM) system (copyright 1992, Gaussian, Inc.),
 the Gaussian 90(TM) system (copyright 1990, Gaussian, Inc.),
 the Gaussian 88(TM) system (copyright 1988, Gaussian, Inc.),
 the Gaussian 86(TM) system (copyright 1986, Carnegie Mellon
 University), and the Gaussian 82(TM) system (copyright 1983,
 Carnegie Mellon University). Gaussian is a federally registered
 trademark of Gaussian, Inc.
  
 This software contains proprietary and confidential information,
 including trade secrets, belonging to Gaussian, Inc.
  
 This software is provided under written license and may be
 used, copied, transmitted, or stored only in accord with that
 written license.
  
 The following legend is applicable only to US Government
 contracts under FAR:
  
                    RESTRICTED RIGHTS LEGEND
  
 Use, reproduction and disclosure by the US Government is
 subject to restrictions as set forth in subparagraphs (a)
 and (c) of the Commercial Computer Software - Restricted
 Rights clause in FAR 52.227-19.
  
 Gaussian, Inc.
 340 Quinnipiac St., Bldg. 40, Wallingford CT 06492
  
  
 ---------------------------------------------------------------
 Warning -- This program may not be used in any manner that
 competes with the business of Gaussian, Inc. or will provide
 assistance to any competitor of Gaussian, Inc.  The licensee
 of this program is prohibited from giving any competitor of
 Gaussian, Inc. access to this program.  By using this program,
 the user acknowledges that Gaussian, Inc. is engaged in the
 business of creating and licensing software in the field of
 computational chemistry and represents and warrants to the
 licensee that it is not a competitor of Gaussian, Inc. and that
 it will not use this program in any manner prohibited above.
 ---------------------------------------------------------------
  

 Cite this work as:
 Gaussian 16, Revision A.03,
 M. J. Frisch, G. W. Trucks, H. B. Schlegel, G. E. Scuseria, 
 M. A. Robb, J. R. Cheeseman, G. Scalmani, V. Barone, 
 G. A. Petersson, H. Nakatsuji, X. Li, M. Caricato, A. V. Marenich, 
 J. Bloino, B. G. Janesko, R. Gomperts, B. Mennucci, H. P. Hratchian, 
 J. V. Ortiz, A. F. Izmaylov, J. L. Sonnenberg, D. Williams-Young, 
 F. Ding, F. Lipparini, F. Egidi, J. Goings, B. Peng, A. Petrone, 
 T. Henderson, D. Ranasinghe, V. G. Zakrzewski, J. Gao, N. Rega, 
 G. Zheng, W. Liang, M. Hada, M. Ehara, K. Toyota, R. Fukuda, 
 J. Hasegawa, M. Ishida, T. Nakajima, Y. Honda, O. Kitao, H. Nakai, 
 T. Vreven, K. Throssell, J. A. Montgomery, Jr., J. E. Peralta, 
 F. Ogliaro, M. J. Bearpark, J. J. Heyd, E. N. Brothers, K. N. Kudin, 
 V. N. Staroverov, T. A. Keith, R. Kobayashi, J. Normand, 
 K. Raghavachari, A. P. Rendell, J. C. Burant, S. S. Iyengar, 
 J. Tomasi, M. Cossi, J. M. Millam, M. Klene, C. Adamo, R. Cammi, 
 J. W. Ochterski, R. L. Martin, K. Morokuma, O. Farkas, 
 J. B. Foresman, and D. J. Fox, Gaussian, Inc., Wallingford CT, 2016.
 
 ******************************************
 Gaussian 16:  ES64L-G16RevA.03 25-Dec-2016
                30-Jan-2025 
 ******************************************
 %NPROC=1', f'%MEM=512MB
 Will use up to    1 processors via shared memory.
 %chk=binder_1h1r.antechamber.chk
 ------------------------
 #P HF/6-31G* OPT(CalcFC)
 ------------------------
 1/10=4,18=20,19=15,38=1/1,3;
 2/9=110,12=2,17=6,18=5,40=1/2;
 3/5=1,6=6,7=1,11=9,25=1,30=1,71=2,140=1/1,2,3;
 4//1;
 5/5=2,38=5/2;
 8/6=4,10=90,11=11/1;
 11/6=1,8=1,9=11,15=111,16=1/1,2,10;
 10/6=1,13=1/2;
 6/7=2,8=2,9=2,10=2,28=1/1;
 7/10=1,18=20,25=1/1,2,3,16;
 1/10=4,18=20,19=15/3(2);
 2/9=110/2;
 99//99;
 2/9=110/2;
 3/5=1,6=6,7=1,11=9,25=1,30=1,71=1/1,2,3;
 4/5=5,16=3,69=1/1;
 5/5=2,38=5/2;
 7//1,2,3,16;
 1/18=20,19=15/3(-5);
 2/9=110/2;
 6/7=2,8=2,9=2,10=2,19=2,28=1/1;
 99/9=1/99;
 Leave Link    1 at Thu Jan 30 14:39:44 2025, MaxMem=           0 cpu:               0.0 elap:               0.0
 (Enter /home/pb777/GAUSSIAN/g16/l101.exe)
 --------------------
 Gaussian Calculation
 --------------------
 Symbolic Z-matrix:
 Charge =  0 Multiplicity = 1
 C                     1.422     29.034    6.768 
 C                    -1.45      32.163    8.008 
 C                    -0.582     26.625    8.978 
 C                    -1.25      25.767    10.081 
 C                    -1.355     24.331    9.527 
 C                    -1.653     23.273    10.603 
 C                    -0.781     23.343    11.865 
 C                    -0.712     24.779    12.432 
 C                    -0.388     25.86     11.38 
 C                     4.688     25.784    5.566 
 C                     4.769     25.234    6.843 
 C                     4.117     25.849    7.91 
 C                     3.38      27.012    7.686 
 N                     0.488     28.18     7.498 
 C                    -0.568     28.637    8.086 
 O                    -1.389     27.808    8.752 
 C                    -0.837     30.059    7.987 
 N                    -1.806     31.022    8.425 
 N                    -0.337     32.096    7.318 
 C                     0.012     30.844    7.311 
 N                     1.172     30.278    6.709 
 N                     2.523     28.721    6.157 
 C                     3.285     27.57     6.403 
 C                     3.966     26.956    5.353 
 H                    -1.974     33.085    8.159 
 H                    -0.541     26.054    8.043 
 H                     0.454     26.776    9.31 
 H                    -2.258     26.125    10.296 
 H                    -0.409     24.042    9.063 
 H                    -2.106     24.282    8.736 
 H                    -1.609     22.271    10.176 
 H                    -2.684     23.422    10.916 
 H                     0.23      23.014    11.618 
 H                    -1.152     22.652    12.623 
 H                    -0.027     24.811    13.272 
 H                    -1.687     25.018    12.862 
 H                    -0.474     26.853    11.824 
 H                     0.671     25.729    11.148 
 Cl                    5.466     24.994    4.246 
 H                     5.35      24.34     7.004 
 H                     4.178     25.428    8.906 
 H                     2.867     27.476    8.515 
 H                     0.088     32.896    6.844 
 H                     2.97      29.474    5.651 
 H                     3.926     27.376    4.364 
 
 ITRead=  0  0  0  0  0  0  0  0  0  0  0  0  0  0  0  0  0  0  0  0
 ITRead=  0  0  0  0  0  0  0  0  0  0  0  0  0  0  0  0  0  0  0  0
 ITRead=  0  0  0  0  0
 MicOpt= -1 -1 -1 -1 -1 -1 -1 -1 -1 -1 -1 -1 -1 -1 -1 -1 -1 -1 -1 -1
 MicOpt= -1 -1 -1 -1 -1 -1 -1 -1 -1 -1 -1 -1 -1 -1 -1 -1 -1 -1 -1 -1
 MicOpt= -1 -1 -1 -1 -1
 NAtoms=     45 NQM=       45 NQMF=       0 NMMI=      0 NMMIF=      0
                NMic=       0 NMicF=      0.
                    Isotopes and Nuclear Properties:
 (Nuclear quadrupole moments (NQMom) in fm**2, nuclear magnetic moments (NMagM)
  in nuclear magnetons)

  Atom         1           2           3           4           5           6           7           8           9          10
 IAtWgt=          12          12          12          12          12          12          12          12          12          12
 AtmWgt=  12.0000000  12.0000000  12.0000000  12.0000000  12.0000000  12.0000000  12.0000000  12.0000000  12.0000000  12.0000000
 NucSpn=           0           0           0           0           0           0           0           0           0           0
 AtZEff=  -0.0000000  -0.0000000  -0.0000000  -0.0000000  -0.0000000  -0.0000000  -0.0000000  -0.0000000  -0.0000000  -0.0000000
 NQMom=    0.0000000   0.0000000   0.0000000   0.0000000   0.0000000   0.0000000   0.0000000   0.0000000   0.0000000   0.0000000
 NMagM=    0.0000000   0.0000000   0.0000000   0.0000000   0.0000000   0.0000000   0.0000000   0.0000000   0.0000000   0.0000000
 AtZNuc=   6.0000000   6.0000000   6.0000000   6.0000000   6.0000000   6.0000000   6.0000000   6.0000000   6.0000000   6.0000000

  Atom        11          12          13          14          15          16          17          18          19          20
 IAtWgt=          12          12          12          14          12          16          12          14          14          12
 AtmWgt=  12.0000000  12.0000000  12.0000000  14.0030740  12.0000000  15.9949146  12.0000000  14.0030740  14.0030740  12.0000000
 NucSpn=           0           0           0           2           0           0           0           2           2           0
 AtZEff=  -0.0000000  -0.0000000  -0.0000000  -0.0000000  -0.0000000  -0.0000000  -0.0000000  -0.0000000  -0.0000000  -0.0000000
 NQMom=    0.0000000   0.0000000   0.0000000   2.0440000   0.0000000   0.0000000   0.0000000   2.0440000   2.0440000   0.0000000
 NMagM=    0.0000000   0.0000000   0.0000000   0.4037610   0.0000000   0.0000000   0.0000000   0.4037610   0.4037610   0.0000000
 AtZNuc=   6.0000000   6.0000000   6.0000000   7.0000000   6.0000000   8.0000000   6.0000000   7.0000000   7.0000000   6.0000000

  Atom        21          22          23          24          25          26          27          28          29          30
 IAtWgt=          14          14          12          12           1           1           1           1           1           1
 AtmWgt=  14.0030740  14.0030740  12.0000000  12.0000000   1.0078250   1.0078250   1.0078250   1.0078250   1.0078250   1.0078250
 NucSpn=           2           2           0           0           1           1           1           1           1           1
 AtZEff=  -0.0000000  -0.0000000  -0.0000000  -0.0000000  -0.0000000  -0.0000000  -0.0000000  -0.0000000  -0.0000000  -0.0000000
 NQMom=    2.0440000   2.0440000   0.0000000   0.0000000   0.0000000   0.0000000   0.0000000   0.0000000   0.0000000   0.0000000
 NMagM=    0.4037610   0.4037610   0.0000000   0.0000000   2.7928460   2.7928460   2.7928460   2.7928460   2.7928460   2.7928460
 AtZNuc=   7.0000000   7.0000000   6.0000000   6.0000000   1.0000000   1.0000000   1.0000000   1.0000000   1.0000000   1.0000000

  Atom        31          32          33          34          35          36          37          38          39          40
 IAtWgt=           1           1           1           1           1           1           1           1          35           1
 AtmWgt=   1.0078250   1.0078250   1.0078250   1.0078250   1.0078250   1.0078250   1.0078250   1.0078250  34.9688527   1.0078250
 NucSpn=           1           1           1           1           1           1           1           1           3           1
 AtZEff=  -0.0000000  -0.0000000  -0.0000000  -0.0000000  -0.0000000  -0.0000000  -0.0000000  -0.0000000  -0.0000000  -0.0000000
 NQMom=    0.0000000   0.0000000   0.0000000   0.0000000   0.0000000   0.0000000   0.0000000   0.0000000  -8.1650000   0.0000000
 NMagM=    2.7928460   2.7928460   2.7928460   2.7928460   2.7928460   2.7928460   2.7928460   2.7928460   0.8218740   2.7928460
 AtZNuc=   1.0000000   1.0000000   1.0000000   1.0000000   1.0000000   1.0000000   1.0000000   1.0000000  17.0000000   1.0000000

  Atom        41          42          43          44          45
 IAtWgt=           1           1           1           1           1
 AtmWgt=   1.0078250   1.0078250   1.0078250   1.0078250   1.0078250
 NucSpn=           1           1           1           1           1
 AtZEff=  -0.0000000  -0.0000000  -0.0000000  -0.0000000  -0.0000000
 NQMom=    0.0000000   0.0000000   0.0000000   0.0000000   0.0000000
 NMagM=    2.7928460   2.7928460   2.7928460   2.7928460   2.7928460
 AtZNuc=   1.0000000   1.0000000   1.0000000   1.0000000   1.0000000
 Leave Link  101 at Thu Jan 30 14:39:44 2025, MaxMem=   104857600 cpu:               0.1 elap:               0.2
 (Enter /home/pb777/GAUSSIAN/g16/l103.exe)

 GradGradGradGradGradGradGradGradGradGradGradGradGradGradGradGradGradGrad
 Berny optimization.
 Initialization pass.
                           ----------------------------
                           !    Initial Parameters    !
                           ! (Angstroms and Degrees)  !
 --------------------------                            --------------------------
 ! Name  Definition              Value          Derivative Info.                !
 --------------------------------------------------------------------------------
 ! R1    R(1,14)                 1.461          calculate D2E/DX2 analytically  !
 ! R2    R(1,21)                 1.2702         calculate D2E/DX2 analytically  !
 ! R3    R(1,22)                 1.2975         calculate D2E/DX2 analytically  !
 ! R4    R(2,18)                 1.2659         calculate D2E/DX2 analytically  !
 ! R5    R(2,19)                 1.3112         calculate D2E/DX2 analytically  !
 ! R6    R(2,25)                 1.0712         calculate D2E/DX2 analytically  !
 ! R7    R(3,4)                  1.5489         calculate D2E/DX2 analytically  !
 ! R8    R(3,16)                 1.4498         calculate D2E/DX2 analytically  !
 ! R9    R(3,26)                 1.0963         calculate D2E/DX2 analytically  !
 ! R10   R(3,27)                 1.0983         calculate D2E/DX2 analytically  !
 ! R11   R(4,5)                  1.5427         calculate D2E/DX2 analytically  !
 ! R12   R(4,9)                  1.5618         calculate D2E/DX2 analytically  !
 ! R13   R(4,28)                 1.0911         calculate D2E/DX2 analytically  !
 ! R14   R(5,6)                  1.5382         calculate D2E/DX2 analytically  !
 ! R15   R(5,29)                 1.0926         calculate D2E/DX2 analytically  !
 ! R16   R(5,30)                 1.0918         calculate D2E/DX2 analytically  !
 ! R17   R(6,7)                  1.5356         calculate D2E/DX2 analytically  !
 ! R18   R(6,31)                 1.0901         calculate D2E/DX2 analytically  !
 ! R19   R(6,32)                 1.0877         calculate D2E/DX2 analytically  !
 ! R20   R(7,8)                  1.5454         calculate D2E/DX2 analytically  !
 ! R21   R(7,33)                 1.0915         calculate D2E/DX2 analytically  !
 ! R22   R(7,34)                 1.0907         calculate D2E/DX2 analytically  !
 ! R23   R(8,9)                  1.5428         calculate D2E/DX2 analytically  !
 ! R24   R(8,35)                 1.0844         calculate D2E/DX2 analytically  !
 ! R25   R(8,36)                 1.0921         calculate D2E/DX2 analytically  !
 ! R26   R(9,37)                 1.0911         calculate D2E/DX2 analytically  !
 ! R27   R(9,38)                 1.092          calculate D2E/DX2 analytically  !
 ! R28   R(10,11)                1.3928         calculate D2E/DX2 analytically  !
 ! R29   R(10,24)                1.3929         calculate D2E/DX2 analytically  !
 ! R30   R(10,39)                1.7239         calculate D2E/DX2 analytically  !
 ! R31   R(11,12)                1.3935         calculate D2E/DX2 analytically  !
 ! R32   R(11,40)                1.0783         calculate D2E/DX2 analytically  !
 ! R33   R(12,13)                1.395          calculate D2E/DX2 analytically  !
 ! R34   R(12,41)                1.083          calculate D2E/DX2 analytically  !
 ! R35   R(13,23)                1.4023         calculate D2E/DX2 analytically  !
 ! R36   R(13,42)                1.0797         calculate D2E/DX2 analytically  !
 ! R37   R(14,15)                1.2922         calculate D2E/DX2 analytically  !
 ! R38   R(15,16)                1.3434         calculate D2E/DX2 analytically  !
 ! R39   R(15,17)                1.4506         calculate D2E/DX2 analytically  !
 ! R40   R(17,18)                1.4346         calculate D2E/DX2 analytically  !
 ! R41   R(17,20)                1.3394         calculate D2E/DX2 analytically  !
 ! R42   R(19,20)                1.2998         calculate D2E/DX2 analytically  !
 ! R43   R(19,43)                1.0224         calculate D2E/DX2 analytically  !
 ! R44   R(20,21)                1.4242         calculate D2E/DX2 analytically  !
 ! R45   R(22,23)                1.4021         calculate D2E/DX2 analytically  !
 ! R46   R(22,44)                1.0114         calculate D2E/DX2 analytically  !
 ! R47   R(23,24)                1.394          calculate D2E/DX2 analytically  !
 ! R48   R(24,45)                1.0752         calculate D2E/DX2 analytically  !
 ! A1    A(14,1,21)            118.0237         calculate D2E/DX2 analytically  !
 ! A2    A(14,1,22)            129.5499         calculate D2E/DX2 analytically  !
 ! A3    A(21,1,22)            112.4195         calculate D2E/DX2 analytically  !
 ! A4    A(18,2,19)            111.4686         calculate D2E/DX2 analytically  !
 ! A5    A(18,2,25)            126.2845         calculate D2E/DX2 analytically  !
 ! A6    A(19,2,25)            122.2337         calculate D2E/DX2 analytically  !
 ! A7    A(4,3,16)             108.8423         calculate D2E/DX2 analytically  !
 ! A8    A(4,3,26)             109.5696         calculate D2E/DX2 analytically  !
 ! A9    A(4,3,27)             105.5277         calculate D2E/DX2 analytically  !
 ! A10   A(16,3,26)            108.2318         calculate D2E/DX2 analytically  !
 ! A11   A(16,3,27)            117.3866         calculate D2E/DX2 analytically  !
 ! A12   A(26,3,27)            107.1051         calculate D2E/DX2 analytically  !
 ! A13   A(3,4,5)              106.8132         calculate D2E/DX2 analytically  !
 ! A14   A(3,4,9)              108.7409         calculate D2E/DX2 analytically  !
 ! A15   A(3,4,28)             110.9167         calculate D2E/DX2 analytically  !
 ! A16   A(5,4,9)              113.059          calculate D2E/DX2 analytically  !
 ! A17   A(5,4,28)             108.2581         calculate D2E/DX2 analytically  !
 ! A18   A(9,4,28)             109.0551         calculate D2E/DX2 analytically  !
 ! A19   A(4,5,6)              113.7174         calculate D2E/DX2 analytically  !
 ! A20   A(4,5,29)             109.8638         calculate D2E/DX2 analytically  !
 ! A21   A(4,5,30)             110.4108         calculate D2E/DX2 analytically  !
 ! A22   A(6,5,29)             106.4326         calculate D2E/DX2 analytically  !
 ! A23   A(6,5,30)             110.0394         calculate D2E/DX2 analytically  !
 ! A24   A(29,5,30)            106.0225         calculate D2E/DX2 analytically  !
 ! A25   A(5,6,7)              115.6925         calculate D2E/DX2 analytically  !
 ! A26   A(5,6,31)             110.5129         calculate D2E/DX2 analytically  !
 ! A27   A(5,6,32)             106.9005         calculate D2E/DX2 analytically  !
 ! A28   A(7,6,31)             109.9325         calculate D2E/DX2 analytically  !
 ! A29   A(7,6,32)             107.1888         calculate D2E/DX2 analytically  !
 ! A30   A(31,6,32)            106.0749         calculate D2E/DX2 analytically  !
 ! A31   A(6,7,8)              111.6688         calculate D2E/DX2 analytically  !
 ! A32   A(6,7,33)             109.0426         calculate D2E/DX2 analytically  !
 ! A33   A(6,7,34)             110.4329         calculate D2E/DX2 analytically  !
 ! A34   A(8,7,33)             108.7686         calculate D2E/DX2 analytically  !
 ! A35   A(8,7,34)             110.4189         calculate D2E/DX2 analytically  !
 ! A36   A(33,7,34)            106.3414         calculate D2E/DX2 analytically  !
 ! A37   A(7,8,9)              114.2214         calculate D2E/DX2 analytically  !
 ! A38   A(7,8,35)             109.8668         calculate D2E/DX2 analytically  !
 ! A39   A(7,8,36)             107.9358         calculate D2E/DX2 analytically  !
 ! A40   A(9,8,35)             112.0164         calculate D2E/DX2 analytically  !
 ! A41   A(9,8,36)             107.616          calculate D2E/DX2 analytically  !
 ! A42   A(35,8,36)            104.6261         calculate D2E/DX2 analytically  !
 ! A43   A(4,9,8)              114.1745         calculate D2E/DX2 analytically  !
 ! A44   A(4,9,37)             110.4349         calculate D2E/DX2 analytically  !
 ! A45   A(4,9,38)             110.5735         calculate D2E/DX2 analytically  !
 ! A46   A(8,9,37)             110.0986         calculate D2E/DX2 analytically  !
 ! A47   A(8,9,38)             105.3356         calculate D2E/DX2 analytically  !
 ! A48   A(37,9,38)            105.7868         calculate D2E/DX2 analytically  !
 ! A49   A(11,10,24)           120.1733         calculate D2E/DX2 analytically  !
 ! A50   A(11,10,39)           119.66           calculate D2E/DX2 analytically  !
 ! A51   A(24,10,39)           120.1603         calculate D2E/DX2 analytically  !
 ! A52   A(10,11,12)           120.0373         calculate D2E/DX2 analytically  !
 ! A53   A(10,11,40)           119.712          calculate D2E/DX2 analytically  !
 ! A54   A(12,11,40)           120.2442         calculate D2E/DX2 analytically  !
 ! A55   A(11,12,13)           119.485          calculate D2E/DX2 analytically  !
 ! A56   A(11,12,41)           120.4147         calculate D2E/DX2 analytically  !
 ! A57   A(13,12,41)           120.1001         calculate D2E/DX2 analytically  !
 ! A58   A(12,13,23)           120.961          calculate D2E/DX2 analytically  !
 ! A59   A(12,13,42)           119.0801         calculate D2E/DX2 analytically  !
 ! A60   A(23,13,42)           119.9536         calculate D2E/DX2 analytically  !
 ! A61   A(1,14,15)            122.8931         calculate D2E/DX2 analytically  !
 ! A62   A(14,15,16)           120.4487         calculate D2E/DX2 analytically  !
 ! A63   A(14,15,17)           117.8516         calculate D2E/DX2 analytically  !
 ! A64   A(16,15,17)           121.696          calculate D2E/DX2 analytically  !
 ! A65   A(3,16,15)            103.9239         calculate D2E/DX2 analytically  !
 ! A66   A(15,17,18)           139.6791         calculate D2E/DX2 analytically  !
 ! A67   A(15,17,20)           119.4344         calculate D2E/DX2 analytically  !
 ! A68   A(18,17,20)           100.8835         calculate D2E/DX2 analytically  !
 ! A69   A(2,18,17)            108.3309         calculate D2E/DX2 analytically  !
 ! A70   A(2,19,20)            106.2584         calculate D2E/DX2 analytically  !
 ! A71   A(2,19,43)            123.8364         calculate D2E/DX2 analytically  !
 ! A72   A(20,19,43)           129.7628         calculate D2E/DX2 analytically  !
 ! A73   A(17,20,19)           113.056          calculate D2E/DX2 analytically  !
 ! A74   A(17,20,21)           119.7814         calculate D2E/DX2 analytically  !
 ! A75   A(19,20,21)           127.1419         calculate D2E/DX2 analytically  !
 ! A76   A(1,21,20)            121.9969         calculate D2E/DX2 analytically  !
 ! A77   A(1,22,23)            125.2094         calculate D2E/DX2 analytically  !
 ! A78   A(1,22,44)            115.5335         calculate D2E/DX2 analytically  !
 ! A79   A(23,22,44)           117.3079         calculate D2E/DX2 analytically  !
 ! A80   A(13,23,22)           121.5998         calculate D2E/DX2 analytically  !
 ! A81   A(13,23,24)           118.7363         calculate D2E/DX2 analytically  !
 ! A82   A(22,23,24)           119.6637         calculate D2E/DX2 analytically  !
 ! A83   A(10,24,23)           120.5729         calculate D2E/DX2 analytically  !
 ! A84   A(10,24,45)           119.2483         calculate D2E/DX2 analytically  !
 ! A85   A(23,24,45)           120.1719         calculate D2E/DX2 analytically  !
 ! D1    D(21,1,14,15)          -0.3723         calculate D2E/DX2 analytically  !
 ! D2    D(22,1,14,15)         178.5919         calculate D2E/DX2 analytically  !
 ! D3    D(14,1,21,20)          -0.941          calculate D2E/DX2 analytically  !
 ! D4    D(22,1,21,20)         179.9229         calculate D2E/DX2 analytically  !
 ! D5    D(14,1,22,23)         -21.2418         calculate D2E/DX2 analytically  !
 ! D6    D(14,1,22,44)         175.148          calculate D2E/DX2 analytically  !
 ! D7    D(21,1,22,23)         157.7691         calculate D2E/DX2 analytically  !
 ! D8    D(21,1,22,44)          -5.8411         calculate D2E/DX2 analytically  !
 ! D9    D(19,2,18,17)           0.3509         calculate D2E/DX2 analytically  !
 ! D10   D(25,2,18,17)         179.0458         calculate D2E/DX2 analytically  !
 ! D11   D(18,2,19,20)          -0.0571         calculate D2E/DX2 analytically  !
 ! D12   D(18,2,19,43)         175.9787         calculate D2E/DX2 analytically  !
 ! D13   D(25,2,19,20)        -178.8134         calculate D2E/DX2 analytically  !
 ! D14   D(25,2,19,43)          -2.7777         calculate D2E/DX2 analytically  !
 ! D15   D(16,3,4,5)           129.1727         calculate D2E/DX2 analytically  !
 ! D16   D(16,3,4,9)          -108.5107         calculate D2E/DX2 analytically  !
 ! D17   D(16,3,4,28)           11.4065         calculate D2E/DX2 analytically  !
 ! D18   D(26,3,4,5)            10.9985         calculate D2E/DX2 analytically  !
 ! D19   D(26,3,4,9)           133.3151         calculate D2E/DX2 analytically  !
 ! D20   D(26,3,4,28)         -106.7678         calculate D2E/DX2 analytically  !
 ! D21   D(27,3,4,5)          -104.0099         calculate D2E/DX2 analytically  !
 ! D22   D(27,3,4,9)            18.3066         calculate D2E/DX2 analytically  !
 ! D23   D(27,3,4,28)          138.2238         calculate D2E/DX2 analytically  !
 ! D24   D(4,3,16,15)          163.4859         calculate D2E/DX2 analytically  !
 ! D25   D(26,3,16,15)         -77.4995         calculate D2E/DX2 analytically  !
 ! D26   D(27,3,16,15)          43.7928         calculate D2E/DX2 analytically  !
 ! D27   D(3,4,5,6)            164.9645         calculate D2E/DX2 analytically  !
 ! D28   D(3,4,5,29)            45.8044         calculate D2E/DX2 analytically  !
 ! D29   D(3,4,5,30)           -70.7837         calculate D2E/DX2 analytically  !
 ! D30   D(9,4,5,6)             45.3994         calculate D2E/DX2 analytically  !
 ! D31   D(9,4,5,29)           -73.7607         calculate D2E/DX2 analytically  !
 ! D32   D(9,4,5,30)           169.6512         calculate D2E/DX2 analytically  !
 ! D33   D(28,4,5,6)           -75.5363         calculate D2E/DX2 analytically  !
 ! D34   D(28,4,5,29)          165.3036         calculate D2E/DX2 analytically  !
 ! D35   D(28,4,5,30)           48.7155         calculate D2E/DX2 analytically  !
 ! D36   D(3,4,9,8)           -164.5526         calculate D2E/DX2 analytically  !
 ! D37   D(3,4,9,37)            70.7518         calculate D2E/DX2 analytically  !
 ! D38   D(3,4,9,38)           -45.9892         calculate D2E/DX2 analytically  !
 ! D39   D(5,4,9,8)            -46.1023         calculate D2E/DX2 analytically  !
 ! D40   D(5,4,9,37)          -170.7978         calculate D2E/DX2 analytically  !
 ! D41   D(5,4,9,38)            72.4611         calculate D2E/DX2 analytically  !
 ! D42   D(28,4,9,8)            74.3803         calculate D2E/DX2 analytically  !
 ! D43   D(28,4,9,37)          -50.3152         calculate D2E/DX2 analytically  !
 ! D44   D(28,4,9,38)         -167.0562         calculate D2E/DX2 analytically  !
 ! D45   D(4,5,6,7)            -48.1359         calculate D2E/DX2 analytically  !
 ! D46   D(4,5,6,31)          -173.8634         calculate D2E/DX2 analytically  !
 ! D47   D(4,5,6,32)            71.1339         calculate D2E/DX2 analytically  !
 ! D48   D(29,5,6,7)            72.9625         calculate D2E/DX2 analytically  !
 ! D49   D(29,5,6,31)          -52.765          calculate D2E/DX2 analytically  !
 ! D50   D(29,5,6,32)         -167.7677         calculate D2E/DX2 analytically  !
 ! D51   D(30,5,6,7)          -172.588          calculate D2E/DX2 analytically  !
 ! D52   D(30,5,6,31)           61.6846         calculate D2E/DX2 analytically  !
 ! D53   D(30,5,6,32)          -53.3181         calculate D2E/DX2 analytically  !
 ! D54   D(5,6,7,8)             48.8375         calculate D2E/DX2 analytically  !
 ! D55   D(5,6,7,33)           -71.3873         calculate D2E/DX2 analytically  !
 ! D56   D(5,6,7,34)           172.1111         calculate D2E/DX2 analytically  !
 ! D57   D(31,6,7,8)           174.8605         calculate D2E/DX2 analytically  !
 ! D58   D(31,6,7,33)           54.6357         calculate D2E/DX2 analytically  !
 ! D59   D(31,6,7,34)          -61.8659         calculate D2E/DX2 analytically  !
 ! D60   D(32,6,7,8)           -70.2741         calculate D2E/DX2 analytically  !
 ! D61   D(32,6,7,33)          169.5011         calculate D2E/DX2 analytically  !
 ! D62   D(32,6,7,34)           52.9995         calculate D2E/DX2 analytically  !
 ! D63   D(6,7,8,9)            -48.5808         calculate D2E/DX2 analytically  !
 ! D64   D(6,7,8,35)          -175.4239         calculate D2E/DX2 analytically  !
 ! D65   D(6,7,8,36)            71.0503         calculate D2E/DX2 analytically  !
 ! D66   D(33,7,8,9)            71.8045         calculate D2E/DX2 analytically  !
 ! D67   D(33,7,8,35)          -55.0386         calculate D2E/DX2 analytically  !
 ! D68   D(33,7,8,36)         -168.5644         calculate D2E/DX2 analytically  !
 ! D69   D(34,7,8,9)          -171.8623         calculate D2E/DX2 analytically  !
 ! D70   D(34,7,8,35)           61.2946         calculate D2E/DX2 analytically  !
 ! D71   D(34,7,8,36)          -52.2312         calculate D2E/DX2 analytically  !
 ! D72   D(7,8,9,4)             48.3294         calculate D2E/DX2 analytically  !
 ! D73   D(7,8,9,37)           173.2037         calculate D2E/DX2 analytically  !
 ! D74   D(7,8,9,38)           -73.1715         calculate D2E/DX2 analytically  !
 ! D75   D(35,8,9,4)           174.0518         calculate D2E/DX2 analytically  !
 ! D76   D(35,8,9,37)          -61.0739         calculate D2E/DX2 analytically  !
 ! D77   D(35,8,9,38)           52.5509         calculate D2E/DX2 analytically  !
 ! D78   D(36,8,9,4)           -71.4813         calculate D2E/DX2 analytically  !
 ! D79   D(36,8,9,37)           53.393          calculate D2E/DX2 analytically  !
 ! D80   D(36,8,9,38)          167.0179         calculate D2E/DX2 analytically  !
 ! D81   D(24,10,11,12)          0.5834         calculate D2E/DX2 analytically  !
 ! D82   D(24,10,11,40)       -178.4934         calculate D2E/DX2 analytically  !
 ! D83   D(39,10,11,12)       -178.4961         calculate D2E/DX2 analytically  !
 ! D84   D(39,10,11,40)          2.427          calculate D2E/DX2 analytically  !
 ! D85   D(11,10,24,23)         -1.8974         calculate D2E/DX2 analytically  !
 ! D86   D(11,10,24,45)        179.0544         calculate D2E/DX2 analytically  !
 ! D87   D(39,10,24,23)        177.1775         calculate D2E/DX2 analytically  !
 ! D88   D(39,10,24,45)         -1.8707         calculate D2E/DX2 analytically  !
 ! D89   D(10,11,12,13)          0.3272         calculate D2E/DX2 analytically  !
 ! D90   D(10,11,12,41)       -179.8415         calculate D2E/DX2 analytically  !
 ! D91   D(40,11,12,13)        179.399          calculate D2E/DX2 analytically  !
 ! D92   D(40,11,12,41)         -0.7696         calculate D2E/DX2 analytically  !
 ! D93   D(11,12,13,23)          0.0569         calculate D2E/DX2 analytically  !
 ! D94   D(11,12,13,42)        179.2193         calculate D2E/DX2 analytically  !
 ! D95   D(41,12,13,23)       -179.775          calculate D2E/DX2 analytically  !
 ! D96   D(41,12,13,42)         -0.6126         calculate D2E/DX2 analytically  !
 ! D97   D(12,13,23,22)        178.5158         calculate D2E/DX2 analytically  !
 ! D98   D(12,13,23,24)         -1.3332         calculate D2E/DX2 analytically  !
 ! D99   D(42,13,23,22)         -0.6393         calculate D2E/DX2 analytically  !
 ! D100  D(42,13,23,24)        179.5117         calculate D2E/DX2 analytically  !
 ! D101  D(1,14,15,16)        -179.5335         calculate D2E/DX2 analytically  !
 ! D102  D(1,14,15,17)           1.1588         calculate D2E/DX2 analytically  !
 ! D103  D(14,15,16,3)          18.2854         calculate D2E/DX2 analytically  !
 ! D104  D(17,15,16,3)        -162.4339         calculate D2E/DX2 analytically  !
 ! D105  D(14,15,17,18)       -179.8954         calculate D2E/DX2 analytically  !
 ! D106  D(14,15,17,20)         -0.6675         calculate D2E/DX2 analytically  !
 ! D107  D(16,15,17,18)          0.806          calculate D2E/DX2 analytically  !
 ! D108  D(16,15,17,20)       -179.9661         calculate D2E/DX2 analytically  !
 ! D109  D(15,17,18,2)         178.8317         calculate D2E/DX2 analytically  !
 ! D110  D(20,17,18,2)          -0.4835         calculate D2E/DX2 analytically  !
 ! D111  D(15,17,20,19)       -179.0241         calculate D2E/DX2 analytically  !
 ! D112  D(15,17,20,21)         -0.5623         calculate D2E/DX2 analytically  !
 ! D113  D(18,17,20,19)          0.4672         calculate D2E/DX2 analytically  !
 ! D114  D(18,17,20,21)        178.9289         calculate D2E/DX2 analytically  !
 ! D115  D(2,19,20,17)          -0.2906         calculate D2E/DX2 analytically  !
 ! D116  D(2,19,20,21)        -178.6158         calculate D2E/DX2 analytically  !
 ! D117  D(43,19,20,17)       -176.0064         calculate D2E/DX2 analytically  !
 ! D118  D(43,19,20,21)          5.6685         calculate D2E/DX2 analytically  !
 ! D119  D(17,20,21,1)           1.4077         calculate D2E/DX2 analytically  !
 ! D120  D(19,20,21,1)         179.6321         calculate D2E/DX2 analytically  !
 ! D121  D(1,22,23,13)         -33.6235         calculate D2E/DX2 analytically  !
 ! D122  D(1,22,23,24)         146.2242         calculate D2E/DX2 analytically  !
 ! D123  D(44,22,23,13)        129.7252         calculate D2E/DX2 analytically  !
 ! D124  D(44,22,23,24)        -50.4271         calculate D2E/DX2 analytically  !
 ! D125  D(13,23,24,10)          2.2474         calculate D2E/DX2 analytically  !
 ! D126  D(13,23,24,45)       -178.7132         calculate D2E/DX2 analytically  !
 ! D127  D(22,23,24,10)       -177.6047         calculate D2E/DX2 analytically  !
 ! D128  D(22,23,24,45)          1.4348         calculate D2E/DX2 analytically  !
 --------------------------------------------------------------------------------
 Trust Radius=3.00D-01 FncErr=1.00D-07 GrdErr=1.00D-07 EigMax=2.50D+02 EigMin=1.00D-04
 Number of steps in this run=    270 maximum allowed number of steps=    270.
 GradGradGradGradGradGradGradGradGradGradGradGradGradGradGradGradGradGrad

 Leave Link  103 at Thu Jan 30 14:39:44 2025, MaxMem=   104857600 cpu:               0.0 elap:               0.0
 (Enter /home/pb777/GAUSSIAN/g16/l202.exe)
                          Input orientation:                          
 ---------------------------------------------------------------------
 Center     Atomic      Atomic             Coordinates (Angstroms)
 Number     Number       Type             X           Y           Z
 ---------------------------------------------------------------------
      1          6           0        1.422000   29.034000    6.768000
      2          6           0       -1.450000   32.163000    8.008000
      3          6           0       -0.582000   26.625000    8.978000
      4          6           0       -1.250000   25.767000   10.081000
      5          6           0       -1.355000   24.331000    9.527000
      6          6           0       -1.653000   23.273000   10.603000
      7          6           0       -0.781000   23.343000   11.865000
      8          6           0       -0.712000   24.779000   12.432000
      9          6           0       -0.388000   25.860000   11.380000
     10          6           0        4.688000   25.784000    5.566000
     11          6           0        4.769000   25.234000    6.843000
     12          6           0        4.117000   25.849000    7.910000
     13          6           0        3.380000   27.012000    7.686000
     14          7           0        0.488000   28.180000    7.498000
     15          6           0       -0.568000   28.637000    8.086000
     16          8           0       -1.389000   27.808000    8.752000
     17          6           0       -0.837000   30.059000    7.987000
     18          7           0       -1.806000   31.022000    8.425000
     19          7           0       -0.337000   32.096000    7.318000
     20          6           0        0.012000   30.844000    7.311000
     21          7           0        1.172000   30.278000    6.709000
     22          7           0        2.523000   28.721000    6.157000
     23          6           0        3.285000   27.570000    6.403000
     24          6           0        3.966000   26.956000    5.353000
     25          1           0       -1.974000   33.085000    8.159000
     26          1           0       -0.541000   26.054000    8.043000
     27          1           0        0.454000   26.776000    9.310000
     28          1           0       -2.258000   26.125000   10.296000
     29          1           0       -0.409000   24.042000    9.063000
     30          1           0       -2.106000   24.282000    8.736000
     31          1           0       -1.609000   22.271000   10.176000
     32          1           0       -2.684000   23.422000   10.916000
     33          1           0        0.230000   23.014000   11.618000
     34          1           0       -1.152000   22.652000   12.623000
     35          1           0       -0.027000   24.811000   13.272000
     36          1           0       -1.687000   25.018000   12.862000
     37          1           0       -0.474000   26.853000   11.824000
     38          1           0        0.671000   25.729000   11.148000
     39         17           0        5.466000   24.994000    4.246000
     40          1           0        5.350000   24.340000    7.004000
     41          1           0        4.178000   25.428000    8.906000
     42          1           0        2.867000   27.476000    8.515000
     43          1           0        0.088000   32.896000    6.844000
     44          1           0        2.970000   29.474000    5.651000
     45          1           0        3.926000   27.376000    4.364000
 ---------------------------------------------------------------------
                    Distance matrix (angstroms):
                    1          2          3          4          5
     1  C    0.000000
     2  C    4.424548   0.000000
     3  C    3.834501   5.688916   0.000000
     4  C    5.365523   6.726525   1.548870   0.000000
     5  C    6.118988   7.978509   2.482210   1.542737   0.000000
     6  C    7.573108   9.263225   3.876025   2.579715   1.538163
     7  C    7.951107   9.649684   4.375602   3.046045   2.602281
     8  C    7.398640   8.639437   3.918511   2.606298   3.008850
     9  C    5.883954   7.226758   2.528332   1.561760   2.589699
    10  C    4.761729   9.183139   6.334187   7.459582   7.370114
    11  C    5.064389   9.383189   5.926745   6.855443   6.747047
    12  C    4.325669   8.418295   4.880922   5.790048   5.904388
    13  C    2.960570   7.068620   4.185269   5.359380   5.744325
    14  N    1.461017   4.458725   2.398609   3.938921   4.725282
    15  C    2.419676   3.635476   2.200910   3.561186   4.608415
    16  O    3.652541   4.418516   1.449763   2.439517   3.562486
    17  C    2.763995   2.191581   3.583220   4.793398   5.953983
    18  N    4.137364   1.265901   4.597564   5.537734   6.796123
    19  N    3.573853   1.311243   5.722540   6.965916   8.137028
    20  C    2.357764   2.088783   4.575116   5.919584   7.014165
    21  N    1.270243   3.480734   4.644275   6.130709   7.049373
    22  N    1.297494   5.572997   4.689593   6.193498   6.757802
    23  C    2.397351   6.789101   4.741027   6.111032   6.463753
    24  C    3.576625   7.968371   5.825332   7.139633   7.254374
    25  H    5.466104   1.071196   6.658831   7.600749   8.881841
    26  H    3.789379   6.176357   1.096333   2.176808   2.415281
    27  H    3.535159   5.860050   1.098326   2.125121   3.049196
    28  H    5.869537   6.507323   2.190000   1.091079   2.150629
    29  H    5.791343   8.255141   2.590182   2.172379   1.092581
    30  H    6.237092   7.941693   2.805493   2.178758   1.091826
    31  H    8.157181  10.128039   4.631117   3.515668   2.174699
    32  H    8.096893   9.294316   4.293420   2.872735   2.126463
    33  H    7.822005   9.977911   4.546236   3.483070   2.935812
    34  H    9.035288  10.575734   5.421776   4.021765   3.527813
    35  H    7.888938   9.153498   4.694364   3.548541   4.002375
    36  H    7.932904   8.641094   4.346140   2.913062   3.421172
    37  H    5.823634   6.611394   2.857160   2.195364   3.523188
    38  H    5.538179   7.466900   2.661151   2.197766   2.947324
    39  Cl   6.247881  10.647923   7.850496   8.930253   8.651854
    40  H    6.125236  10.413806   6.656315   7.420529   7.163982
    41  H    5.016953   8.822755   4.908726   5.564057   5.674781
    42  H    2.750890   6.392301   3.582481   4.724693   5.361012
    43  H    4.086609   2.063402   6.657950   7.942988   9.090653
    44  H    1.958978   5.685294   5.639365   7.153681   7.757541
    45  H    3.846842   8.068177   6.494233   7.878067   7.988589
                    6          7          8          9         10
     6  C    0.000000
     7  C    1.535555   0.000000
     8  C    2.549266   1.545427   0.000000
     9  C    2.982704   2.593253   1.542803   0.000000
    10  C    8.478489   8.691711   8.792723   7.718429   0.000000
    11  C    7.695791   7.720030   7.841257   6.897166   1.392763
    12  C    6.868837   6.775874   6.701688   5.686479   2.413421
    13  C    6.915208   6.945468   6.652463   5.400978   2.777273
    14  N    6.188987   6.639098   6.111559   4.606485   5.207057
    15  C    6.023704   6.507891   5.813142   4.312142   6.489649
    16  O    4.905316   5.476920   4.814101   3.420978   7.153817
    17  C    7.318409   7.755429   6.903046   5.417163   7.393409
    18  N    8.050720   8.476513   7.498529   6.114654   8.819442
    19  N    9.506230   9.873568   8.934882   7.442455   8.255996
    20  C    8.421967   8.810946   7.970762   6.446473   7.107292
    21  N    8.497875   8.859615   8.157278   6.615933   5.819342
    22  N    8.178423   8.510027   8.085803   6.628648   3.696279
    23  C    7.777407   8.014570   7.753356   6.417598   2.420490
    24  C    8.526438   8.831417   8.759866   7.515535   1.392924
    25  H   10.116893  10.491151   9.425540   8.067891  10.218145
    26  H    3.940064   4.691994   4.573640   3.346134   5.792311
    27  H    4.287459   4.454070   3.885158   2.415144   5.738323
    28  H    2.931583   3.518922   2.960461   2.177655   8.410475
    29  H    2.123793   2.911733   3.461956   2.945175   6.422070
    30  H    2.170018   3.525335   3.981289   3.525953   7.646132
    31  H    1.090078   2.165061   3.490589   3.977610   8.558357
    32  H    1.087718   2.127969   2.833459   3.380940   9.409991
    33  H    2.154761   1.091499   2.159904   2.922034   8.010828
    34  H    2.171875   1.090727   2.180415   3.524203   9.680717
    35  H    3.483229   2.168684   1.084366   2.193259   9.086275
    36  H    2.854691   2.149528   1.092083   2.143056   9.719002
    37  H    3.961980   3.523639   2.174347   1.091137   8.182394
    38  H    3.424900   2.883642   2.112781   1.092001   6.877357
    39  Cl   9.698116   9.989994  10.257900   9.268939   1.723886
    40  H    7.945647   7.887490   8.148850   7.374579   2.142714
    41  H    6.443943   6.139592   6.063495   5.211109   3.397416
    42  H    6.515777   6.450744   5.951969   4.627603   3.856878
    43  H   10.476798  10.827068   9.886932   8.384937   8.565852
    44  H    9.184053   9.501208   9.032282   7.560331   4.071222
    45  H    9.321211   9.730670   9.661681   8.374551   2.135395
                   11         12         13         14         15
    11  C    0.000000
    12  C    1.393491   0.000000
    13  C    2.408579   1.394960   0.000000
    14  N    5.237834   4.332776   3.124617   0.000000
    15  C    6.450506   5.454644   4.288045   1.292180   0.000000
    16  O    6.941954   5.904463   4.951094   2.287800   1.343443
    17  C    7.484424   6.501703   5.211324   2.350614   1.450602
    18  N    8.901365   7.880805   6.597031   3.768120   2.708466
    19  N    8.566441   7.695037   6.308611   4.006006   3.550756
    20  C    7.370222   6.493062   5.115493   2.712645   2.409953
    21  N    6.196636   5.452657   4.061594   2.343498   2.759821
    22  N    4.204079   3.723201   2.448055   2.496435   3.644500
    23  C    2.802276   2.434156   1.402312   3.065018   4.337809
    24  C    2.414579   2.790430   2.406122   4.265640   5.554476
    25  H   10.432550   9.461605   8.109894   5.527874   4.665498
    26  H    5.505316   4.664405   4.052093   2.423993   2.583499
    27  H    5.204140   4.029503   3.354780   2.292535   2.450710
    28  H    7.880090   6.812474   6.275820   4.426324   3.748379
    29  H    5.758554   5.007927   5.007350   4.514076   4.700408
    30  H    7.194121   6.470200   6.217041   4.843128   4.664115
    31  H    7.782489   7.122072   7.318969   6.818018   6.780689
    32  H    8.684462   7.821762   7.751974   6.662047   6.299411
    33  H    6.952089   6.074147   6.431728   6.612754   6.688046
    34  H    8.667950   7.758578   7.995161   7.714532   7.532971
    35  H    8.031973   6.855744   6.903292   6.704809   6.467268
    36  H    8.829210   7.674587   7.512756   6.595556   6.095859
    37  H    7.410841   6.115938   5.656999   4.626084   4.142962
    38  H    5.964198   4.730112   4.579325   4.400385   4.400844
    39  Cl   2.699596   3.996964   4.500813   6.745857   8.026594
    40  H    1.078294   2.149001   3.389042   6.215198   7.393082
    41  H    2.154736   1.083041   2.152733   4.813737   5.787452
    42  H    3.382270   2.139078   1.079679   2.681333   3.651190
    43  H    8.978753   8.187149   6.794681   4.777905   4.484638
    44  H    4.757611   4.422591   3.220368   3.353531   4.375756
    45  H    3.382936   3.865530   3.386192   4.721040   5.969878
                   16         17         18         19         20
    16  O    0.000000
    17  C    2.440682   0.000000
    18  N    3.257394   1.434634   0.000000
    19  N    4.642198   2.201574   2.129997   0.000000
    20  C    3.640958   1.339404   2.139580   1.299752   0.000000
    21  N    4.102861   2.391093   3.516628   2.439895   1.424205
    22  N    4.782399   4.053239   5.401728   4.573636   3.484819
    23  C    5.236480   5.069030   6.474803   5.868627   4.717634
    24  C    6.399620   6.295663   7.699709   6.985459   5.880852
    25  H    5.342341   3.237133   2.086851   2.089299   3.112134
    26  H    2.073234   4.016314   5.140737   6.088761   4.877062
    27  H    2.184728   3.767638   4.890740   5.735516   4.554118
    28  H    2.443683   4.777769   5.261706   6.943455   6.027610
    29  H    3.903829   6.127418   7.146961   8.241185   7.036615
    30  H    3.598197   5.961970   6.753838   8.136257   7.041051
    31  H    5.721411   8.126540   8.926635  10.311003   9.183256
    32  H    5.059340   7.486002   8.045866   9.679478   8.680468
    33  H    5.815286   7.997167   8.858251  10.064503   8.939053
    34  H    6.451755   8.743876   9.386577  10.862614   9.832655
    35  H    5.591731   7.491918   8.076805   9.413684   8.481281
    36  H    4.976445   7.063979   7.466535   9.091563   8.224505
    37  H    3.344613   5.013260   5.541479   6.914612   6.044125
    38  H    3.782414   5.569101   6.447178   7.498243   6.428069
    39  Cl   8.672581   8.909384  10.328737   9.672145   8.565211
    40  H    7.777959   8.482465   9.893265   9.622687   8.419650
    41  H    6.056369   6.887739   8.205635   8.207874   7.016597
    42  H    4.275503   4.546459   5.866783   5.748289   4.576469
    43  H    5.631140   3.195410   3.098173   1.022400   2.105842
    44  H    5.602913   4.504705   5.735988   4.537623   3.658178
    45  H    6.905823   6.558261   7.914598   7.012680   6.002602
                   21         22         23         24         25
    21  N    0.000000
    22  N    2.134046   0.000000
    23  C    3.448430   1.402127   0.000000
    24  C    4.547621   2.417414   1.394008   0.000000
    25  H    4.458595   6.578412   7.820220   8.984535   0.000000
    26  H    4.749326   4.478614   4.430139   5.325669   7.176483
    27  H    4.420942   4.243253   4.134688   5.293807   6.857366
    28  H    6.471389   6.835825   6.925917   7.991369   7.286222
    29  H    6.850443   6.239752   5.759168   6.433982   9.221838
    30  H    7.127835   6.912568   6.731769   7.447426   8.822877
    31  H    9.157844   8.650334   8.140403   8.734482  11.006549
    32  H    8.920332   8.822717   8.555819   9.362618  10.073665
    33  H    8.817672   8.224975   7.568777   8.291398  10.874159
    34  H    9.926341   9.599351   9.086369   9.877816  11.377630
    35  H    8.625466   8.509631   8.109537   9.124453   9.919307
    36  H    8.584922   8.740328   8.541204   9.596736   9.342220
    37  H    6.372061   6.677299   6.635617   7.848443   7.383769
    38  H    6.375666   6.106722   5.721652   6.778243   8.369043
    39  Cl   7.240543   5.118955   4.005644   2.706454  11.667453
    40  H    7.266537   5.282282   3.880506   3.388910  11.465166
    41  H    6.114356   4.597812   3.413301   3.873440   9.850622
    42  H    3.739768   2.688592   2.155018   3.387690   7.417742
    43  H    2.836760   4.881784   6.227485   7.248832   2.452915
    44  H    2.235751   1.011362   2.071218   2.724178   6.616080
    45  H    4.637364   2.644293   2.146168   1.075231   9.044595
                   26         27         28         29         30
    26  H    0.000000
    27  H    1.765389   0.000000
    28  H    2.833574   2.958199   0.000000
    29  H    2.259639   2.877592   3.045978   0.000000
    30  H    2.463627   3.619822   2.419370   1.744803   0.000000
    31  H    4.472293   5.030005   3.910104   2.411475   2.522842
    32  H    4.446797   4.865757   2.805724   2.998939   2.413728
    33  H    4.755698   4.419240   4.197160   2.827212   3.920541
    34  H    5.737885   5.528343   4.324337   3.893295   4.321549
    35  H    5.399230   4.448599   3.944684   4.295692   5.017706
    36  H    5.060570   4.504570   2.852340   4.125320   4.212022
    37  H    3.865081   2.680916   2.459151   3.940694   4.336958
    38  H    3.348969   2.126392   3.075998   2.891296   3.952630
    39  Cl   7.185044   7.344370   9.876327   7.656724   8.831887
    40  H    6.222636   5.934859   8.479691   6.123264   7.654745
    41  H    4.837934   3.981017   6.621179   4.794394   6.389904
    42  H    3.722812   2.635260   5.591314   4.777535   5.914491
    43  H    6.974683   6.608291   7.954022   9.141350   9.088140
    44  H    5.453915   5.195935   7.753954   7.250242   7.889225
    45  H    5.936060   6.072701   8.659993   7.210297   8.066737
                   31         32         33         34         35
    31  H    0.000000
    32  H    1.740122   0.000000
    33  H    2.452210   3.025006   0.000000
    34  H    2.518297   2.419457   1.746709   0.000000
    35  H    4.305757   3.813097   2.455804   2.519545   0.000000
    36  H    3.842745   2.707054   3.039480   2.437479   1.722367
    37  H    4.999885   4.180948   3.908449   4.329721   2.542888
    38  H    4.254521   4.078247   2.790449   3.868706   2.416879
    39  Cl   9.624721  10.648126   9.256483  10.929639  10.567649
    40  H    7.922754   8.982852   7.018666   8.757768   8.271747
    41  H    6.713339   7.426384   5.363678   7.066199   6.093002
    42  H    7.062968   7.281025   6.040846   7.503266   6.173047
    43  H   11.263776  10.678101  10.975662  11.826833  10.329551
    44  H    9.660542   9.814002   9.211096  10.589587   9.423652
    45  H    9.511919  10.112117   9.236232  10.784866  10.077594
                   36         37         38         39         40
    36  H    0.000000
    37  H    2.432291   0.000000
    38  H    3.000580   1.741085   0.000000
    39  Cl  11.198278   9.806404   8.436223   0.000000
    40  H    9.181243   7.966589   6.402741   2.836853   0.000000
    41  H    7.086343   5.673311   4.173274   4.854163   2.484941
    42  H    6.758483   4.743405   3.848001   5.580277   4.275851
    43  H   10.071238   7.850738   8.380346   9.905256  10.045864
    44  H    9.671717   7.539012   7.037573   5.317372   5.818330
    45  H   10.453800   8.676700   7.702616   2.838917   4.267865
                   41         42         43         44         45
    41  H    0.000000
    42  H    2.462906   0.000000
    43  H    8.760763   6.315970   0.000000
    44  H    5.331454   3.493581   4.630255   0.000000
    45  H    4.948532   4.285123   7.165964   2.640437   0.000000
 Stoichiometry    C18H20ClN5O
 Framework group  C1[X(C18H20ClN5O)]
 Deg. of freedom   129
 Full point group                 C1      NOp   1
 Largest Abelian subgroup         C1      NOp   1
 Largest concise Abelian subgroup C1      NOp   1
                         Standard orientation:                         
 ---------------------------------------------------------------------
 Center     Atomic      Atomic             Coordinates (Angstroms)
 Number     Number       Type             X           Y           Z
 ---------------------------------------------------------------------
      1          6           0        0.977508    1.977341   -0.042669
      2          6           0       -2.160797    5.090939    0.139474
      3          6           0       -1.866497   -0.555294   -0.490771
      4          6           0       -3.045165   -1.555667   -0.395942
      5          6           0       -2.710576   -2.730159   -1.338627
      6          6           0       -3.578306   -3.978336   -1.104013
      7          6           0       -3.712675   -4.430650    0.357248
      8          6           0       -4.083265   -3.253318    1.287246
      9          6           0       -3.211787   -1.995062    1.093442
     10          6           0        4.400415   -1.332599    0.002722
     11          6           0        3.674438   -2.228872    0.783390
     12          6           0        2.466393   -1.835609    1.355919
     13          6           0        1.990239   -0.543238    1.134627
     14          7           0       -0.168898    1.135395   -0.376514
     15          6           0       -1.376426    1.589920   -0.447311
     16          8           0       -2.396172    0.769196   -0.749583
     17          6           0       -1.583000    3.005330   -0.206090
     18          7           0       -2.650273    3.962998   -0.161638
     19          7           0       -0.861574    5.022159    0.302711
     20          6           0       -0.533395    3.782404    0.091381
     21          7           0        0.767926    3.210376    0.179180
     22          7           0        2.228014    1.656711    0.087413
     23          6           0        2.708900    0.364819    0.343781
     24          6           0        3.928422   -0.037621   -0.198497
     25          1           0       -2.700913    6.010901    0.236452
     26          1           0       -1.214981   -0.833675   -1.327417
     27          1           0       -1.286389   -0.696161    0.431158
     28          1           0       -3.974059   -1.096742   -0.737990
     29          1           0       -1.674037   -3.041913   -1.189863
     30          1           0       -2.783602   -2.414308   -2.381214
     31          1           0       -3.228790   -4.807661   -1.719097
     32          1           0       -4.578100   -3.739854   -1.459917
     33          1           0       -2.762383   -4.853709    0.687909
     34          1           0       -4.450402   -5.229535    0.442270
     35          1           0       -4.091505   -3.587132    2.318919
     36          1           0       -5.118314   -2.973658    1.079621
     37          1           0       -3.604074   -1.171415    1.692022
     38          1           0       -2.242751   -2.244778    1.530566
     39         17           0        5.874156   -1.841369   -0.732822
     40          1           0        4.058720   -3.221761    0.954319
     41          1           0        1.898139   -2.526759    1.966145
     42          1           0        1.047307   -0.249533    1.570886
     43          1           0       -0.267729    5.832873    0.490839
     44          1           0        2.861225    2.428311    0.250294
     45          1           0        4.508441    0.646775   -0.791204
 ---------------------------------------------------------------------
 Rotational constants (GHZ):           0.1788739           0.1367757           0.0824173
 Leave Link  202 at Thu Jan 30 14:39:45 2025, MaxMem=   104857600 cpu:               0.0 elap:               0.0
 (Enter /home/pb777/GAUSSIAN/g16/l301.exe)
 Standard basis: 6-31G(d) (6D, 7F)
 Ernie: Thresh=  0.10000D-02 Tol=  0.10000D-05 Strict=F.
 There are   419 symmetry adapted cartesian basis functions of A   symmetry.
 There are   419 symmetry adapted basis functions of A   symmetry.
   419 basis functions,   804 primitive gaussians,   419 cartesian basis functions
    94 alpha electrons       94 beta electrons
       nuclear repulsion energy      2221.1095638139 Hartrees.
 IExCor=    0 DFT=F Ex=HF Corr=None ExCW=0 ScaHFX=  1.000000
 ScaDFX=  1.000000  1.000000  1.000000  1.000000 ScalE2=  1.000000  1.000000
 IRadAn=      5 IRanWt=     -1 IRanGd=            0 ICorTp=0 IEmpDi=  4
 NAtoms=   45 NActive=   45 NUniq=   45 SFac= 1.00D+00 NAtFMM=   60 NAOKFM=F Big=F
 Integral buffers will be    131072 words long.
 Raffenetti 1 integral format.
 Two-electron integral symmetry is turned on.
 Leave Link  301 at Thu Jan 30 14:39:45 2025, MaxMem=   104857600 cpu:               0.0 elap:               0.0
 (Enter /home/pb777/GAUSSIAN/g16/l302.exe)
 NPDir=0 NMtPBC=     1 NCelOv=     1 NCel=       1 NClECP=     1 NCelD=      1
         NCelK=      1 NCelE2=     1 NClLst=     1 CellRange=     0.0.
 One-electron integrals computed using PRISM.
 One-electron integral symmetry used in STVInt
 NBasis=   419 RedAO= T EigKep=  4.25D-04  NBF=   419
 NBsUse=   419 1.00D-06 EigRej= -1.00D+00 NBFU=   419
 Leave Link  302 at Thu Jan 30 14:39:45 2025, MaxMem=   104857600 cpu:               0.2 elap:               0.2
 (Enter /home/pb777/GAUSSIAN/g16/l303.exe)
 DipDrv:  MaxL=1.
 Leave Link  303 at Thu Jan 30 14:39:45 2025, MaxMem=   104857600 cpu:               0.0 elap:               0.0
 (Enter /home/pb777/GAUSSIAN/g16/l401.exe)
 ExpMin= 1.43D-01 ExpMax= 2.52D+04 ExpMxC= 3.78D+03 IAcc=3 IRadAn=         5 AccDes= 0.00D+00
 Harris functional with IExCor=  205 and IRadAn=       5 diagonalized for initial guess.
 HarFok:  IExCor=  205 AccDes= 0.00D+00 IRadAn=         5 IDoV= 1 UseB2=F ITyADJ=14
 ICtDFT=  3500011 ScaDFX=  1.000000  1.000000  1.000000  1.000000
 FoFCou: FMM=F IPFlag=           0 FMFlag=      100000 FMFlg1=           0
         NFxFlg=           0 DoJE=T BraDBF=F KetDBF=T FulRan=T
         wScrn=  0.000000 ICntrl=       500 IOpCl=  0 I1Cent=   200000004 NGrid=           0
         NMat0=    1 NMatS0=      1 NMatT0=    0 NMatD0=    1 NMtDS0=    0 NMtDT0=    0
 Petite list used in FoFCou.
 Harris En= -1500.71377516271    
 JPrj=0 DoOrth=F DoCkMO=F.
 Leave Link  401 at Thu Jan 30 14:39:52 2025, MaxMem=   104857600 cpu:               7.0 elap:               7.0
 (Enter /home/pb777/GAUSSIAN/g16/l502.exe)
 Integral symmetry usage will be decided dynamically.
 Closed shell SCF:
 Using DIIS extrapolation, IDIIS=  1040.
 NGot=   104857600 LenX=   104499323 LenY=   104323321
 Requested convergence on RMS density matrix=1.00D-08 within 128 cycles.
 Requested convergence on MAX density matrix=1.00D-06.
 Requested convergence on             energy=1.00D-06.
 No special actions if energy rises.
 Fock matrices will be formed incrementally for  20 cycles.
 Integral accuracy reduced to 1.0D-05 until final iterations.

 Cycle   1  Pass 0  IDiag  1:
 FoFJK:  IHMeth= 1 ICntrl=       0 DoSepK=F KAlg= 0 I1Cent=           0 FoldK=F
 IRaf= 710000000 NMat=       1 IRICut=       1 DoRegI=T DoRafI=F ISym2E= 0 IDoP0=0 IntGTp=1.
 FoFCou: FMM=F IPFlag=           0 FMFlag=      100000 FMFlg1=           0
         NFxFlg=           0 DoJE=F BraDBF=F KetDBF=F FulRan=T
         wScrn=  0.000000 ICntrl=         0 IOpCl=  0 I1Cent=           0 NGrid=           0
         NMat0=    1 NMatS0=      1 NMatT0=    0 NMatD0=    1 NMtDS0=    0 NMtDT0=    0
 Symmetry not used in FoFCou.
 E= -1498.83082536513    
 DIIS: error= 7.52D-02 at cycle   1 NSaved=   1.
 NSaved= 1 IEnMin= 1 EnMin= -1498.83082536513     IErMin= 1 ErrMin= 7.52D-02
 ErrMax= 7.52D-02  0.00D+00 EMaxC= 1.00D-01 BMatC= 1.66D+00 BMatP= 1.66D+00
 IDIUse=3 WtCom= 2.48D-01 WtEn= 7.52D-01
 Coeff-Com:  0.100D+01
 Coeff-En:   0.100D+01
 Coeff:      0.100D+01
 Gap=     0.591 Goal=   None    Shift=    0.000
 GapD=    0.591 DampG=2.000 DampE=0.500 DampFc=1.0000 IDamp=-1.
 RMSDP=3.79D-03 MaxDP=1.37D-01              OVMax= 1.49D-01

 Cycle   2  Pass 0  IDiag  1:
 RMSU=  3.70D-03    CP:  9.52D-01
 E= -1499.65262293443     Delta-E=       -0.821797569303 Rises=F Damp=F
 DIIS: error= 1.71D-02 at cycle   2 NSaved=   2.
 NSaved= 2 IEnMin= 2 EnMin= -1499.65262293443     IErMin= 2 ErrMin= 1.71D-02
 ErrMax= 1.71D-02  0.00D+00 EMaxC= 1.00D-01 BMatC= 1.65D-01 BMatP= 1.66D+00
 IDIUse=3 WtCom= 8.29D-01 WtEn= 1.71D-01
 Coeff-Com:  0.152D+00 0.848D+00
 Coeff-En:   0.000D+00 0.100D+01
 Coeff:      0.126D+00 0.874D+00
 Gap=     0.507 Goal=   None    Shift=    0.000
 RMSDP=1.39D-03 MaxDP=6.37D-02 DE=-8.22D-01 OVMax= 5.70D-02

 Cycle   3  Pass 0  IDiag  1:
 RMSU=  1.21D-03    CP:  9.59D-01  8.15D-01
 E= -1499.78644226974     Delta-E=       -0.133819335310 Rises=F Damp=F
 DIIS: error= 5.60D-03 at cycle   3 NSaved=   3.
 NSaved= 3 IEnMin= 3 EnMin= -1499.78644226974     IErMin= 3 ErrMin= 5.60D-03
 ErrMax= 5.60D-03  0.00D+00 EMaxC= 1.00D-01 BMatC= 1.86D-02 BMatP= 1.65D-01
 IDIUse=3 WtCom= 9.44D-01 WtEn= 5.60D-02
 Coeff-Com: -0.230D-01 0.218D+00 0.805D+00
 Coeff-En:   0.000D+00 0.000D+00 0.100D+01
 Coeff:     -0.217D-01 0.205D+00 0.816D+00
 Gap=     0.420 Goal=   None    Shift=    0.000
 RMSDP=3.54D-04 MaxDP=1.58D-02 DE=-1.34D-01 OVMax= 2.21D-02

 Cycle   4  Pass 0  IDiag  1:
 RMSU=  2.01D-04    CP:  9.56D-01  8.82D-01  8.76D-01
 E= -1499.80466467515     Delta-E=       -0.018222405408 Rises=F Damp=F
 DIIS: error= 6.95D-04 at cycle   4 NSaved=   4.
 NSaved= 4 IEnMin= 4 EnMin= -1499.80466467515     IErMin= 4 ErrMin= 6.95D-04
 ErrMax= 6.95D-04  0.00D+00 EMaxC= 1.00D-01 BMatC= 6.18D-04 BMatP= 1.86D-02
 IDIUse=3 WtCom= 9.93D-01 WtEn= 6.95D-03
 Coeff-Com: -0.730D-02 0.246D-01 0.179D+00 0.804D+00
 Coeff-En:   0.000D+00 0.000D+00 0.000D+00 0.100D+01
 Coeff:     -0.725D-02 0.244D-01 0.178D+00 0.805D+00
 Gap=     0.414 Goal=   None    Shift=    0.000
 RMSDP=8.27D-05 MaxDP=3.64D-03 DE=-1.82D-02 OVMax= 6.14D-03

 Cycle   5  Pass 0  IDiag  1:
 RMSU=  6.44D-05    CP:  9.56D-01  8.83D-01  9.18D-01  9.68D-01
 E= -1499.80537900610     Delta-E=       -0.000714330950 Rises=F Damp=F
 DIIS: error= 4.98D-04 at cycle   5 NSaved=   5.
 NSaved= 5 IEnMin= 5 EnMin= -1499.80537900610     IErMin= 5 ErrMin= 4.98D-04
 ErrMax= 4.98D-04  0.00D+00 EMaxC= 1.00D-01 BMatC= 6.53D-05 BMatP= 6.18D-04
 IDIUse=3 WtCom= 9.95D-01 WtEn= 4.98D-03
 Coeff-Com:  0.170D-02-0.215D-01-0.681D-01 0.769D-01 0.101D+01
 Coeff-En:   0.000D+00 0.000D+00 0.000D+00 0.000D+00 0.100D+01
 Coeff:      0.169D-02-0.214D-01-0.678D-01 0.765D-01 0.101D+01
 Gap=     0.414 Goal=   None    Shift=    0.000
 RMSDP=4.05D-05 MaxDP=1.88D-03 DE=-7.14D-04 OVMax= 3.86D-03

 Cycle   6  Pass 0  IDiag  1:
 RMSU=  2.41D-05    CP:  9.56D-01  8.84D-01  9.34D-01  1.09D+00  1.14D+00
 E= -1499.80553176427     Delta-E=       -0.000152758171 Rises=F Damp=F
 DIIS: error= 1.62D-04 at cycle   6 NSaved=   6.
 NSaved= 6 IEnMin= 6 EnMin= -1499.80553176427     IErMin= 6 ErrMin= 1.62D-04
 ErrMax= 1.62D-04  0.00D+00 EMaxC= 1.00D-01 BMatC= 1.22D-05 BMatP= 6.53D-05
 IDIUse=3 WtCom= 9.98D-01 WtEn= 1.62D-03
 Coeff-Com:  0.107D-02-0.710D-02-0.315D-01-0.861D-01 0.195D+00 0.928D+00
 Coeff-En:   0.000D+00 0.000D+00 0.000D+00 0.000D+00 0.000D+00 0.100D+01
 Coeff:      0.107D-02-0.709D-02-0.315D-01-0.860D-01 0.195D+00 0.929D+00
 Gap=     0.415 Goal=   None    Shift=    0.000
 RMSDP=1.68D-05 MaxDP=5.95D-04 DE=-1.53D-04 OVMax= 2.09D-03

 Cycle   7  Pass 0  IDiag  1:
 RMSU=  9.18D-06    CP:  9.56D-01  8.84D-01  9.37D-01  1.12D+00  1.31D+00
                    CP:  1.13D+00
 E= -1499.80556189902     Delta-E=       -0.000030134752 Rises=F Damp=F
 DIIS: error= 7.08D-05 at cycle   7 NSaved=   7.
 NSaved= 7 IEnMin= 7 EnMin= -1499.80556189902     IErMin= 7 ErrMin= 7.08D-05
 ErrMax= 7.08D-05  0.00D+00 EMaxC= 1.00D-01 BMatC= 1.97D-06 BMatP= 1.22D-05
 IDIUse=1 WtCom= 1.00D+00 WtEn= 0.00D+00
 Coeff-Com: -0.210D-03 0.301D-02 0.103D-01-0.183D-01-0.141D+00 0.618D-02
 Coeff-Com:  0.114D+01
 Coeff:     -0.210D-03 0.301D-02 0.103D-01-0.183D-01-0.141D+00 0.618D-02
 Coeff:      0.114D+01
 Gap=     0.415 Goal=   None    Shift=    0.000
 RMSDP=8.90D-06 MaxDP=3.43D-04 DE=-3.01D-05 OVMax= 1.23D-03

 Initial convergence to 1.0D-05 achieved.  Increase integral accuracy.
 Cycle   8  Pass 1  IDiag  1:
 E= -1499.80557277051     Delta-E=       -0.000010871483 Rises=F Damp=F
 DIIS: error= 6.36D-05 at cycle   1 NSaved=   1.
 NSaved= 1 IEnMin= 1 EnMin= -1499.80557277051     IErMin= 1 ErrMin= 6.36D-05
 ErrMax= 6.36D-05  0.00D+00 EMaxC= 1.00D-01 BMatC= 1.46D-06 BMatP= 1.46D-06
 IDIUse=1 WtCom= 1.00D+00 WtEn= 0.00D+00
 Coeff-Com:  0.100D+01
 Coeff:      0.100D+01
 Gap=     0.415 Goal=   None    Shift=    0.000
 RMSDP=8.90D-06 MaxDP=3.43D-04 DE=-1.09D-05 OVMax= 4.77D-04

 Cycle   9  Pass 1  IDiag  1:
 RMSU=  2.50D-05    CP:  1.00D+00
 E= -1499.80557490260     Delta-E=       -0.000002132089 Rises=F Damp=F
 DIIS: error= 1.69D-05 at cycle   2 NSaved=   2.
 NSaved= 2 IEnMin= 2 EnMin= -1499.80557490260     IErMin= 2 ErrMin= 1.69D-05
 ErrMax= 1.69D-05  0.00D+00 EMaxC= 1.00D-01 BMatC= 2.09D-07 BMatP= 1.46D-06
 IDIUse=1 WtCom= 1.00D+00 WtEn= 0.00D+00
 Coeff-Com:  0.431D-01 0.957D+00
 Coeff:      0.431D-01 0.957D+00
 Gap=     0.415 Goal=   None    Shift=    0.000
 RMSDP=2.22D-06 MaxDP=7.58D-05 DE=-2.13D-06 OVMax= 2.95D-04

 Cycle  10  Pass 1  IDiag  1:
 RMSU=  1.91D-06    CP:  1.00D+00  1.05D+00
 E= -1499.80557549298     Delta-E=       -0.000000590387 Rises=F Damp=F
 DIIS: error= 1.76D-05 at cycle   3 NSaved=   3.
 NSaved= 3 IEnMin= 3 EnMin= -1499.80557549298     IErMin= 2 ErrMin= 1.69D-05
 ErrMax= 1.76D-05  0.00D+00 EMaxC= 1.00D-01 BMatC= 1.03D-07 BMatP= 2.09D-07
 IDIUse=1 WtCom= 1.00D+00 WtEn= 0.00D+00
 Coeff-Com: -0.972D-01 0.280D+00 0.818D+00
 Coeff:     -0.972D-01 0.280D+00 0.818D+00
 Gap=     0.415 Goal=   None    Shift=    0.000
 RMSDP=1.31D-06 MaxDP=5.49D-05 DE=-5.90D-07 OVMax= 2.16D-04

 Cycle  11  Pass 1  IDiag  1:
 RMSU=  1.13D-06    CP:  1.00D+00  1.06D+00  1.28D+00
 E= -1499.80557578496     Delta-E=       -0.000000291972 Rises=F Damp=F
 DIIS: error= 8.38D-06 at cycle   4 NSaved=   4.
 NSaved= 4 IEnMin= 4 EnMin= -1499.80557578496     IErMin= 4 ErrMin= 8.38D-06
 ErrMax= 8.38D-06  0.00D+00 EMaxC= 1.00D-01 BMatC= 2.95D-08 BMatP= 1.03D-07
 IDIUse=1 WtCom= 1.00D+00 WtEn= 0.00D+00
 Coeff-Com:  0.188D-01-0.595D+00-0.381D+00 0.196D+01
 Coeff:      0.188D-01-0.595D+00-0.381D+00 0.196D+01
 Gap=     0.415 Goal=   None    Shift=    0.000
 RMSDP=2.07D-06 MaxDP=7.04D-05 DE=-2.92D-07 OVMax= 3.43D-04

 Cycle  12  Pass 1  IDiag  1:
 RMSU=  3.83D-07    CP:  1.00D+00  1.07D+00  2.16D+00  2.01D+00
 E= -1499.80557599600     Delta-E=       -0.000000211046 Rises=F Damp=F
 DIIS: error= 1.25D-06 at cycle   5 NSaved=   5.
 NSaved= 5 IEnMin= 5 EnMin= -1499.80557599600     IErMin= 5 ErrMin= 1.25D-06
 ErrMax= 1.25D-06  0.00D+00 EMaxC= 1.00D-01 BMatC= 1.35D-09 BMatP= 2.95D-08
 IDIUse=1 WtCom= 1.00D+00 WtEn= 0.00D+00
 Coeff-Com:  0.110D-01-0.194D+00-0.165D+00 0.585D+00 0.763D+00
 Coeff:      0.110D-01-0.194D+00-0.165D+00 0.585D+00 0.763D+00
 Gap=     0.415 Goal=   None    Shift=    0.000
 RMSDP=2.18D-07 MaxDP=7.16D-06 DE=-2.11D-07 OVMax= 3.68D-05

 Cycle  13  Pass 1  IDiag  1:
 RMSU=  1.04D-07    CP:  1.00D+00  1.07D+00  2.23D+00  2.13D+00  1.06D+00
 E= -1499.80557599928     Delta-E=       -0.000000003274 Rises=F Damp=F
 DIIS: error= 4.60D-07 at cycle   6 NSaved=   6.
 NSaved= 6 IEnMin= 6 EnMin= -1499.80557599928     IErMin= 6 ErrMin= 4.60D-07
 ErrMax= 4.60D-07  0.00D+00 EMaxC= 1.00D-01 BMatC= 1.25D-10 BMatP= 1.35D-09
 IDIUse=1 WtCom= 1.00D+00 WtEn= 0.00D+00
 Coeff-Com: -0.380D-02 0.988D-01 0.668D-01-0.314D+00-0.563D-01 0.121D+01
 Coeff:     -0.380D-02 0.988D-01 0.668D-01-0.314D+00-0.563D-01 0.121D+01
 Gap=     0.415 Goal=   None    Shift=    0.000
 RMSDP=7.12D-08 MaxDP=2.58D-06 DE=-3.27D-09 OVMax= 7.80D-06

 Cycle  14  Pass 1  IDiag  1:
 RMSU=  4.31D-08    CP:  1.00D+00  1.07D+00  2.24D+00  2.14D+00  1.18D+00
                    CP:  1.22D+00
 E= -1499.80557599963     Delta-E=       -0.000000000357 Rises=F Damp=F
 DIIS: error= 1.92D-07 at cycle   7 NSaved=   7.
 NSaved= 7 IEnMin= 7 EnMin= -1499.80557599963     IErMin= 7 ErrMin= 1.92D-07
 ErrMax= 1.92D-07  0.00D+00 EMaxC= 1.00D-01 BMatC= 1.55D-11 BMatP= 1.25D-10
 IDIUse=1 WtCom= 1.00D+00 WtEn= 0.00D+00
 Coeff-Com: -0.196D-02 0.404D-01 0.304D-01-0.127D+00-0.802D-01 0.187D+00
 Coeff-Com:  0.951D+00
 Coeff:     -0.196D-02 0.404D-01 0.304D-01-0.127D+00-0.802D-01 0.187D+00
 Coeff:      0.951D+00
 Gap=     0.415 Goal=   None    Shift=    0.000
 RMSDP=2.34D-08 MaxDP=1.12D-06 DE=-3.57D-10 OVMax= 2.58D-06

 Cycle  15  Pass 1  IDiag  1:
 RMSU=  1.25D-08    CP:  1.00D+00  1.07D+00  2.24D+00  2.15D+00  1.20D+00
                    CP:  1.32D+00  1.29D+00
 E= -1499.80557599969     Delta-E=       -0.000000000058 Rises=F Damp=F
 DIIS: error= 1.12D-07 at cycle   8 NSaved=   8.
 NSaved= 8 IEnMin= 8 EnMin= -1499.80557599969     IErMin= 8 ErrMin= 1.12D-07
 ErrMax= 1.12D-07  0.00D+00 EMaxC= 1.00D-01 BMatC= 2.54D-12 BMatP= 1.55D-11
 IDIUse=1 WtCom= 1.00D+00 WtEn= 0.00D+00
 Coeff-Com:  0.446D-03-0.124D-01-0.815D-02 0.391D-01 0.108D-01-0.192D+00
 Coeff-Com:  0.865D-01 0.108D+01
 Coeff:      0.446D-03-0.124D-01-0.815D-02 0.391D-01 0.108D-01-0.192D+00
 Coeff:      0.865D-01 0.108D+01
 Gap=     0.415 Goal=   None    Shift=    0.000
 RMSDP=1.02D-08 MaxDP=5.64D-07 DE=-5.82D-11 OVMax= 1.03D-06

 Cycle  16  Pass 1  IDiag  1:
 RMSU=  5.23D-09    CP:  1.00D+00  1.07D+00  2.24D+00  2.15D+00  1.20D+00
                    CP:  1.33D+00  1.47D+00  1.14D+00
 E= -1499.80557599969     Delta-E=        0.000000000003 Rises=F Damp=F
 DIIS: error= 3.72D-08 at cycle   9 NSaved=   9.
 NSaved= 9 IEnMin= 8 EnMin= -1499.80557599969     IErMin= 9 ErrMin= 3.72D-08
 ErrMax= 3.72D-08  0.00D+00 EMaxC= 1.00D-01 BMatC= 3.85D-13 BMatP= 2.54D-12
 IDIUse=1 WtCom= 1.00D+00 WtEn= 0.00D+00
 Coeff-Com:  0.323D-03-0.725D-02-0.517D-02 0.228D-01 0.145D-01-0.652D-01
 Coeff-Com: -0.992D-01 0.216D+00 0.923D+00
 Coeff:      0.323D-03-0.725D-02-0.517D-02 0.228D-01 0.145D-01-0.652D-01
 Coeff:     -0.992D-01 0.216D+00 0.923D+00
 Gap=     0.415 Goal=   None    Shift=    0.000
 RMSDP=3.27D-09 MaxDP=1.88D-07 DE= 2.73D-12 OVMax= 3.39D-07

 SCF Done:  E(RHF) =  -1499.80557600     A.U. after   16 cycles
            NFock= 16  Conv=0.33D-08     -V/T= 2.0011
 KE= 1.498167871589D+03 PE=-7.965485734797D+03 EE= 2.746402723394D+03
 Leave Link  502 at Thu Jan 30 14:41:30 2025, MaxMem=   104857600 cpu:              98.2 elap:              98.7
 (Enter /home/pb777/GAUSSIAN/g16/l801.exe)
 Range of M.O.s used for correlation:     1   419
 NBasis=   419 NAE=    94 NBE=    94 NFC=     0 NFV=     0
 NROrb=    419 NOA=    94 NOB=    94 NVA=   325 NVB=   325
 Leave Link  801 at Thu Jan 30 14:41:30 2025, MaxMem=   104857600 cpu:               0.0 elap:               0.0
 (Enter /home/pb777/GAUSSIAN/g16/l1101.exe)
 Using compressed storage, NAtomX=    45.
 Will process     46 centers per pass.
 Leave Link 1101 at Thu Jan 30 14:41:31 2025, MaxMem=   104857600 cpu:               0.3 elap:               0.4
 (Enter /home/pb777/GAUSSIAN/g16/l1102.exe)
 Symmetrizing basis deriv contribution to polar:
 IMax=3 JMax=2 DiffMx= 0.00D+00
 Leave Link 1102 at Thu Jan 30 14:41:31 2025, MaxMem=   104857600 cpu:               0.1 elap:               0.0
 (Enter /home/pb777/GAUSSIAN/g16/l1110.exe)
 Forming Gx(P) for the SCF density, NAtomX=    45.
 Integral derivatives from FoFJK, PRISM(SPDF).
 Do as many integral derivatives as possible in FoFJK.
 G2DrvN: MDV=     104854224.
 G2DrvN: will do    46 centers at a time, making    1 passes.
 Calling FoFCou, ICntrl=  3107 FMM=F I1Cent=   0 AccDes= 0.00D+00.
 FoFJK:  IHMeth= 1 ICntrl=    3107 DoSepK=F KAlg= 0 I1Cent=           0 FoldK=F
 IRaf=         0 NMat=       1 IRICut=       1 DoRegI=T DoRafI=F ISym2E= 0 IDoP0=0 IntGTp=1.
 FoFCou: FMM=F IPFlag=           0 FMFlag=      100000 FMFlg1=           0
         NFxFlg=           0 DoJE=F BraDBF=F KetDBF=F FulRan=T
         wScrn=  0.000000 ICntrl=      3107 IOpCl=  0 I1Cent=           0 NGrid=           0
         NMat0=    1 NMatS0=      1 NMatT0=    0 NMatD0=    1 NMtDS0=    0 NMtDT0=    0
 Symmetry not used in FoFCou.
 End of G2Drv F.D. properties file   721 does not exist.
 End of G2Drv F.D. properties file   722 does not exist.
 End of G2Drv F.D. properties file   788 does not exist.
 Leave Link 1110 at Thu Jan 30 14:42:59 2025, MaxMem=   104857600 cpu:              87.9 elap:              88.3
 (Enter /home/pb777/GAUSSIAN/g16/l1002.exe)
 Minotr:  Closed shell wavefunction.
          IDoAtm=111111111111111111111111111111111111111111111
          Direct CPHF calculation.
          Differentiating once with respect to nuclear coordinates.
          Requested convergence is 1.0D-08 RMS, and 1.0D-07 maximum.
          Secondary convergence is 1.0D-12 RMS, and 1.0D-12 maximum.
          NewPWx=T KeepS1=F KeepF1=F KeepIn=T MapXYZ=F SortEE=F KeepMc=T.
 Two-electron integrals replicated using symmetry.
          MDV=     104857600 using IRadAn=       1.
          Solving linear equations simultaneously, MaxMat=     384.
 FoF2E skips out because all densities are zero.
 FoFJK:  IHMeth= 1 ICntrl=       0 DoSepK=F KAlg= 0 I1Cent=           0 FoldK=F
 IRaf= 660000000 NMat=     135 IRICut=     337 DoRegI=T DoRafI=T ISym2E= 2 IDoP0=0 IntGTp=1.
 FoFCou: FMM=F IPFlag=           0 FMFlag=      100000 FMFlg1=           0
         NFxFlg=           0 DoJE=F BraDBF=F KetDBF=F FulRan=T
         wScrn=  0.000000 ICntrl=         0 IOpCl=  0 I1Cent=           0 NGrid=           0
         NMat0=  135 NMatS0=    135 NMatT0=    0 NMatD0=  135 NMtDS0=    0 NMtDT0=    0
 Integrals replicated using symmetry in FoFCou.
 Raff kept on since  60.38% of shell-pairs survive, threshold=   0.20 IRatSp=60.
          There are   138 degrees of freedom in the 1st order CPHF.  IDoFFX=6 NUNeed=     0.
    132 vectors produced by pass  0 Test12= 3.05D-14 1.00D-09 XBig12= 1.03D-01 1.02D-01.
 AX will form   132 AO Fock derivatives at one time.
    132 vectors produced by pass  1 Test12= 3.05D-14 1.00D-09 XBig12= 1.28D-02 2.19D-02.
    132 vectors produced by pass  2 Test12= 3.05D-14 1.00D-09 XBig12= 3.79D-04 2.86D-03.
    132 vectors produced by pass  3 Test12= 3.05D-14 1.00D-09 XBig12= 5.63D-06 2.79D-04.
    132 vectors produced by pass  4 Test12= 3.05D-14 1.00D-09 XBig12= 4.52D-08 1.69D-05.
    132 vectors produced by pass  5 Test12= 3.05D-14 1.00D-09 XBig12= 3.57D-10 1.44D-06.
    118 vectors produced by pass  6 Test12= 3.05D-14 1.00D-09 XBig12= 2.31D-12 1.15D-07.
     47 vectors produced by pass  7 Test12= 3.05D-14 1.00D-09 XBig12= 1.56D-14 7.77D-09.
 InvSVY:  IOpt=1 It=  1 EMax= 3.05D-16
 Solved reduced A of dimension   957 with   138 vectors.
 End of Minotr F.D. properties file   721 does not exist.
 End of Minotr F.D. properties file   722 does not exist.
 End of Minotr F.D. properties file   788 does not exist.
 Leave Link 1002 at Thu Jan 30 15:05:42 2025, MaxMem=   104857600 cpu:            1355.1 elap:            1362.3
 (Enter /home/pb777/GAUSSIAN/g16/l601.exe)
 Copying SCF densities to generalized density rwf, IOpCl= 0 IROHF=0.

 **********************************************************************

            Population analysis using the SCF density.

 **********************************************************************

 Orbital symmetries:
       Occupied  (A) (A) (A) (A) (A) (A) (A) (A) (A) (A) (A) (A)
                 (A) (A) (A) (A) (A) (A) (A) (A) (A) (A) (A) (A)
                 (A) (A) (A) (A) (A) (A) (A) (A) (A) (A) (A) (A)
                 (A) (A) (A) (A) (A) (A) (A) (A) (A) (A) (A) (A)
                 (A) (A) (A) (A) (A) (A) (A) (A) (A) (A) (A) (A)
                 (A) (A) (A) (A) (A) (A) (A) (A) (A) (A) (A) (A)
                 (A) (A) (A) (A) (A) (A) (A) (A) (A) (A) (A) (A)
                 (A) (A) (A) (A) (A) (A) (A) (A) (A) (A)
       Virtual   (A) (A) (A) (A) (A) (A) (A) (A) (A) (A) (A) (A)
                 (A) (A) (A) (A) (A) (A) (A) (A) (A) (A) (A) (A)
                 (A) (A) (A) (A) (A) (A) (A) (A) (A) (A) (A) (A)
                 (A) (A) (A) (A) (A) (A) (A) (A) (A) (A) (A) (A)
                 (A) (A) (A) (A) (A) (A) (A) (A) (A) (A) (A) (A)
                 (A) (A) (A) (A) (A) (A) (A) (A) (A) (A) (A) (A)
                 (A) (A) (A) (A) (A) (A) (A) (A) (A) (A) (A) (A)
                 (A) (A) (A) (A) (A) (A) (A) (A) (A) (A) (A) (A)
                 (A) (A) (A) (A) (A) (A) (A) (A) (A) (A) (A) (A)
                 (A) (A) (A) (A) (A) (A) (A) (A) (A) (A) (A) (A)
                 (A) (A) (A) (A) (A) (A) (A) (A) (A) (A) (A) (A)
                 (A) (A) (A) (A) (A) (A) (A) (A) (A) (A) (A) (A)
                 (A) (A) (A) (A) (A) (A) (A) (A) (A) (A) (A) (A)
                 (A) (A) (A) (A) (A) (A) (A) (A) (A) (A) (A) (A)
                 (A) (A) (A) (A) (A) (A) (A) (A) (A) (A) (A) (A)
                 (A) (A) (A) (A) (A) (A) (A) (A) (A) (A) (A) (A)
                 (A) (A) (A) (A) (A) (A) (A) (A) (A) (A) (A) (A)
                 (A) (A) (A) (A) (A) (A) (A) (A) (A) (A) (A) (A)
                 (A) (A) (A) (A) (A) (A) (A) (A) (A) (A) (A) (A)
                 (A) (A) (A) (A) (A) (A) (A) (A) (A) (A) (A) (A)
                 (A) (A) (A) (A) (A) (A) (A) (A) (A) (A) (A) (A)
                 (A) (A) (A) (A) (A) (A) (A) (A) (A) (A) (A) (A)
                 (A) (A) (A) (A) (A) (A) (A) (A) (A) (A) (A) (A)
                 (A) (A) (A) (A) (A) (A) (A) (A) (A) (A) (A) (A)
                 (A) (A) (A) (A) (A) (A) (A) (A) (A) (A) (A) (A)
                 (A) (A) (A) (A) (A) (A) (A) (A) (A) (A) (A) (A)
                 (A) (A) (A) (A) (A) (A) (A) (A) (A) (A) (A) (A)
                 (A)
 The electronic state is 1-A.
 Alpha  occ. eigenvalues -- -104.83126 -20.61181 -15.63238 -15.60433 -15.55738
 Alpha  occ. eigenvalues --  -15.54805 -15.53916 -11.36755 -11.35930 -11.30907
 Alpha  occ. eigenvalues --  -11.30779 -11.29826 -11.29657 -11.27468 -11.25500
 Alpha  occ. eigenvalues --  -11.25259 -11.24956 -11.24708 -11.24638 -11.22364
 Alpha  occ. eigenvalues --  -11.21904 -11.21604 -11.21561 -11.21406 -11.21186
 Alpha  occ. eigenvalues --  -10.56491  -8.03435  -8.03094  -8.03092  -1.43892
 Alpha  occ. eigenvalues --   -1.39701  -1.34166  -1.23996  -1.19333  -1.18595
 Alpha  occ. eigenvalues --   -1.15736  -1.11713  -1.11176  -1.05440  -1.03047
 Alpha  occ. eigenvalues --   -1.01722  -1.00082  -0.99584  -0.93158  -0.88631
 Alpha  occ. eigenvalues --   -0.87514  -0.85239  -0.83553  -0.83255  -0.82295
 Alpha  occ. eigenvalues --   -0.80335  -0.78196  -0.76165  -0.74186  -0.72080
 Alpha  occ. eigenvalues --   -0.69718  -0.68806  -0.67339  -0.66662  -0.65301
 Alpha  occ. eigenvalues --   -0.64236  -0.63956  -0.63177  -0.62318  -0.61419
 Alpha  occ. eigenvalues --   -0.60364  -0.59606  -0.59445  -0.59189  -0.58175
 Alpha  occ. eigenvalues --   -0.55355  -0.54808  -0.53713  -0.53463  -0.52284
[...]
 1200 Fit      -0.007173
 1201 Fit      -0.003808
 1202 Fit      -0.000726
 1203 Fit       0.001176
 1204 Fit       0.002229
 1205 Fit      -0.005280
 1206 Fit      -0.000652
 1207 Fit       0.002178
 1208 Fit      -0.005352
 1209 Fit      -0.005419
 1210 Fit      -0.009381
 1211 Fit      -0.010892
 1212 Fit      -0.009785
 1213 Fit      -0.007445
 1214 Fit      -0.014716
 1215 Fit      -0.022422
 1216 Fit      -0.024759
 1217 Fit      -0.018392
 1218 Fit      -0.011148
 1219 Fit      -0.020709
 1220 Fit       0.001856
 1221 Fit      -0.001006
 1222 Fit       0.003287
 1223 Fit       0.000442
 1224 Fit      -0.003502
 1225 Fit       0.005041
 1226 Fit       0.005100
 1227 Fit       0.001738
 1228 Fit      -0.003064
 1229 Fit       0.007379
 1230 Fit      -0.014642
 1231 Fit      -0.015075
 1232 Fit      -0.014880
 1233 Fit      -0.014788
 1234 Fit      -0.013137
 1235 Fit      -0.008746
 1236 Fit      -0.013230
 1237 Fit      -0.014461
 1238 Fit      -0.014528
 1239 Fit      -0.013629
 1240 Fit      -0.010532
 1241 Fit      -0.011390
 1242 Fit      -0.013741
 1243 Fit      -0.012146
 1244 Fit      -0.012343
 1245 Fit      -0.012403
 1246 Fit      -0.010917
 1247 Fit      -0.005478
 1248 Fit      -0.009474
 1249 Fit      -0.011871
 1250 Fit      -0.012218
 1251 Fit      -0.009022
 1252 Fit      -0.009324
 1253 Fit      -0.010121
 1254 Fit      -0.009941
 1255 Fit      -0.006647
 1256 Fit      -0.006877
 1257 Fit      -0.009224
 1258 Fit      -0.010945
 1259 Fit      -0.010770
 1260 Fit      -0.009701
 1261 Fit      -0.006953
 1262 Fit      -0.007352
 1263 Fit      -0.008658
 1264 Fit      -0.009213
 1265 Fit      -0.007407
 1266 Fit      -0.003887
 1267 Fit      -0.004142
 1268 Fit      -0.009850
 1269 Fit      -0.014009
 1270 Fit      -0.014901
 1271 Fit      -0.013967
 1272 Fit      -0.012761
 1273 Fit      -0.012363
 1274 Fit      -0.011788
 1275 Fit      -0.010145
 1276 Fit      -0.008099
 1277 Fit      -0.007188
 1278 Fit      -0.007720
 1279 Fit      -0.009327
 1280 Fit      -0.010142
 1281 Fit      -0.010299
 1282 Fit      -0.011888
 1283 Fit      -0.014085
 1284 Fit      -0.015025
 1285 Fit      -0.014739
 1286 Fit      -0.013596
 1287 Fit      -0.011433
 1288 Fit      -0.008751
 1289 Fit      -0.009542
 1290 Fit      -0.010538
 1291 Fit      -0.012527
 1292 Fit      -0.014262
 1293 Fit      -0.014288
 1294 Fit      -0.011844
 1295 Fit      -0.012512
 1296 Fit       0.003303
 1297 Fit      -0.004628
 1298 Fit       0.009662
 1299 Fit       0.006554
 1300 Fit       0.002180
 1301 Fit       0.007077
 1302 Fit       0.007086
 1303 Fit       0.005206
 1304 Fit       0.000687
 1305 Fit       0.002881
 1306 Fit       0.002769
 1307 Fit      -0.001900
 1308 Fit      -0.005152
 1309 Fit      -0.004443
 1310 Fit       0.006526
 1311 Fit       0.012405
 1312 Fit       0.011298
 1313 Fit       0.007957
 1314 Fit       0.013043
 1315 Fit       0.012145
 1316 Fit       0.011534
 1317 Fit       0.009763
 1318 Fit       0.005605
 1319 Fit       0.008594
 1320 Fit       0.009387
 1321 Fit       0.010079
 1322 Fit       0.010369
 1323 Fit       0.010501
 1324 Fit       0.003919
 1325 Fit       0.006289
 1326 Fit       0.014884
 1327 Fit       0.028959
 1328 Fit       0.035249
 1329 Fit       0.022383
 1330 Fit       0.030839
 1331 Fit       0.035539
 1332 Fit       0.038171
 1333 Fit       0.025151
 1334 Fit       0.032775
 1335 Fit       0.035443
 1336 Fit       0.034182
 1337 Fit       0.014413
 1338 Fit       0.027875
 1339 Fit       0.029259
 1340 Fit       0.019716
 1341 Fit      -0.000541
 1342 Fit       0.017382
 1343 Fit       0.013338
 1344 Fit       0.017232
 1345 Fit       0.005502
 1346 Fit       0.019549
 1347 Fit       0.009828
 1348 Fit       0.013460
 1349 Fit      -0.000235
 1350 Fit       0.009903
 1351 Fit      -0.000614
 1352 Fit       0.008984
 1353 Fit       0.018291
 1354 Fit       0.010233
 1355 Fit       0.016799
 1356 Fit       0.004404
 1357 Fit       0.008087
 1358 Fit      -0.002298
 1359 Fit      -0.006950
 1360 Fit      -0.005060
 1361 Fit      -0.004203
 1362 Fit      -0.005178
 1363 Fit      -0.007313
 1364 Fit      -0.006261
 1365 Fit      -0.003208
 1366 Fit      -0.002784
 1367 Fit       0.000584
 1368 Fit       0.006605
 1369 Fit       0.010450
 1370 Fit       0.016026
 1371 Fit      -0.007215
 1372 Fit       0.007347
 1373 Fit      -0.003205
 1374 Fit       0.019359
 1375 Fit       0.009112
 1376 Fit       0.000046
 1377 Fit      -0.005776
 1378 Fit       0.004780
 1379 Fit       0.006050
 1380 Fit       0.009012
 1381 Fit       0.001801
 1382 Fit       0.001092
 1383 Fit       0.000973
 1384 Fit       0.001438
 1385 Fit       0.002578
 1386 Fit       0.003185
 1387 Fit       0.000152
 1388 Fit       0.000202
 1389 Fit      -0.000081
 1390 Fit       0.000114
 1391 Fit       0.000797
 1392 Fit      -0.000642
 1393 Fit      -0.003696
 1394 Fit      -0.000802
 1395 Fit      -0.006346
 1396 Fit      -0.003441
 1397 Fit      -0.014212
 1398 Fit      -0.014090
 1399 Fit      -0.014156
 1400 Fit      -0.009868
 1401 Fit      -0.014105
 1402 Fit      -0.004138
 1403 Fit      -0.010124
 1404 Fit      -0.004112
 1405 Fit       0.003301
 1406 Fit      -0.004481
 1407 Fit      -0.013883
 1408 Fit      -0.009884
 1409 Fit      -0.006465
 1410 Fit      -0.000244
 1411 Fit      -0.004928
 1412 Fit       0.001882
 1413 Fit      -0.008282
 1414 Fit      -0.012497
 1415 Fit      -0.001702
 1416 Fit       0.003453
 1417 Fit       0.001035
 1418 Fit      -0.004822
 1419 Fit      -0.002008
 1420 Fit       0.000528
 1421 Fit      -0.012266
 1422 Fit      -0.009038
 1423 Fit      -0.006828
 1424 Fit      -0.008054
 1425 Fit       0.000046
 1426 Fit      -0.011950
 1427 Fit      -0.010654
 1428 Fit       0.000615
 1429 Fit      -0.008571
 1430 Fit      -0.007165
 1431 Fit      -0.012000
 1432 Fit      -0.006346
 1433 Fit      -0.005235
 1434 Fit      -0.009882
 1435 Fit      -0.005407
 1436 Fit      -0.007299
 1437 Fit      -0.012293
 1438 Fit      -0.003307
 1439 Fit      -0.005684
 1440 Fit      -0.010686
 1441 Fit      -0.005520
 1442 Fit      -0.003652
 1443 Fit      -0.004243
 1444 Fit      -0.028862
 1445 Fit      -0.029058
 1446 Fit      -0.013248
 1447 Fit      -0.011378
 1448 Fit      -0.004672
 1449 Fit      -0.012719
 1450 Fit      -0.007739
 1451 Fit      -0.011733
 1452 Fit      -0.007777
 1453 Fit      -0.021455
 1454 Fit      -0.017935
 1455 Fit      -0.015445
 1456 Fit      -0.017201
 1457 Fit      -0.023578
 1458 Fit      -0.025364
 1459 Fit      -0.021956
 1460 Fit      -0.013486
 1461 Fit      -0.010416
 1462 Fit      -0.010317
 1463 Fit      -0.019774
 1464 Fit      -0.026812
 1465 Fit      -0.028682
 1466 Fit      -0.005772
 1467 Fit      -0.017570
 1468 Fit      -0.025806
 1469 Fit      -0.029671
 1470 Fit      -0.014187
 1471 Fit      -0.023133
 1472 Fit      -0.027451
 1473 Fit      -0.010534
 1474 Fit      -0.019446
 1475 Fit      -0.023413
 1476 Fit      -0.025002
 1477 Fit      -0.015240
 1478 Fit      -0.018289
 1479 Fit      -0.010814
 1480 Fit       0.003799
 1481 Fit       0.010376
 1482 Fit       0.004473
 1483 Fit       0.012290
 1484 Fit       0.019370
 1485 Fit       0.004651
 1486 Fit       0.016461
 1487 Fit       0.033328
 1488 Fit       0.021785
 1489 Fit       0.021603
 1490 Fit       0.011630
 1491 Fit       0.003313
 1492 Fit       0.016497
 1493 Fit       0.007407
 1494 Fit       0.005938
 1495 Fit      -0.004238
 1496 Fit      -0.002141
 1497 Fit      -0.002443
 1498 Fit      -0.004337
 1499 Fit      -0.005053
 1500 Fit      -0.006289
 1501 Fit      -0.003743
 1502 Fit      -0.003521
 1503 Fit      -0.004420
 1504 Fit       0.003054
 1505 Fit      -0.002440
 1506 Fit       0.002277
 1507 Fit      -0.000720
 1508 Fit       0.002763
 1509 Fit      -0.001680
 1510 Fit       0.001800
 1511 Fit       0.002571
 1512 Fit      -0.002277
 1513 Fit      -0.005297
 1514 Fit      -0.002256
 1515 Fit      -0.004413
 1516 Fit      -0.006068
 1517 Fit      -0.006016
 1518 Fit      -0.004014
 1519 Fit      -0.008544
 1520 Fit      -0.006375
 1521 Fit      -0.004386
 1522 Fit      -0.003000
 1523 Fit       0.005012
 1524 Fit      -0.009058
 1525 Fit      -0.005510
 1526 Fit      -0.006581
 1527 Fit       0.003969
 1528 Fit      -0.002990
 1529 Fit      -0.014329
 1530 Fit      -0.010213
 1531 Fit      -0.010091
 1532 Fit      -0.010491
 1533 Fit      -0.014751
 1534 Fit      -0.010371
 1535 Fit      -0.010075
 1536 Fit      -0.003811
 1537 Fit      -0.002069
 1538 Fit       0.004478
 1539 Fit      -0.004260
 1540 Fit      -0.010735
 1541 Fit      -0.001823
 1542 Fit      -0.007864
 1543 Fit       0.008181
 1544 Fit      -0.000115
 1545 Fit       0.015917
 1546 Fit       0.016056
 1547 Fit       0.013473
 1548 Fit       0.007652
 1549 Fit      -0.003880
 1550 Fit       0.022984
 1551 Fit       0.020712
 1552 Fit       0.017619
 1553 Fit       0.013000
 1554 Fit       0.005592
 1555 Fit       0.030237
 1556 Fit       0.024509
 1557 Fit       0.020019
 1558 Fit       0.014952
 1559 Fit       0.007874
 1560 Fit       0.028970
 1561 Fit       0.021159
 1562 Fit       0.014283
 1563 Fit       0.011999
 1564 Fit      -0.001287
 1565 Fit       0.002771
 1566 Fit       0.005809
 1567 Fit       0.007131
 1568 Fit       0.006258
 1569 Fit       0.000080
 1570 Fit       0.002477
 1571 Fit      -0.000162
 1572 Fit      -0.003693
 1573 Fit       0.003964
 1574 Fit       0.000760
 1575 Fit      -0.001856
 1576 Fit       0.007922
 1577 Fit       0.000338
 1578 Fit      -0.003539
 1579 Fit       0.005758
 1580 Fit      -0.015484
 1581 Fit      -0.005597
 1582 Fit       0.000133
 1583 Fit      -0.018537
 1584 Fit      -0.006744
 1585 Fit      -0.000727
 1586 Fit       0.002685
 1587 Fit      -0.012791
 1588 Fit      -0.003704
 1589 Fit       0.001067
 1590 Fit       0.003777
 1591 Fit      -0.000112
 1592 Fit       0.004240
 1593 Fit       0.006268
 1594 Fit       0.005758
 1595 Fit       0.006749
 1596 Fit       0.007664
 1597 Fit       0.005459
 1598 Fit       0.006249
 1599 Fit       0.008251
 1600 Fit       0.005908
 1601 Fit       0.007429
 1602 Fit       0.008885
 1603 Fit       0.004083
 1604 Fit       0.004771
 1605 Fit       0.005486
 1606 Fit       0.010603
 1607 Fit       0.005099
 1608 Fit       0.004658
 1609 Fit       0.004688
 1610 Fit       0.005095
 1611 Fit       0.005814
 1612 Fit       0.007502
 1613 Fit       0.007916
 1614 Fit       0.005786
 1615 Fit       0.005640
 1616 Fit       0.006328
 1617 Fit       0.006790
 1618 Fit       0.001942
 1619 Fit       0.002617
 1620 Fit       0.003109
 1621 Fit       0.003240
 1622 Fit       0.001756
 1623 Fit       0.002923
 1624 Fit       0.003767
 1625 Fit       0.004149
 1626 Fit       0.004343
 1627 Fit       0.001654
 1628 Fit       0.003006
 1629 Fit       0.004002
 1630 Fit       0.004527
 1631 Fit       0.004820
 1632 Fit       0.001788
 1633 Fit       0.003151
 1634 Fit       0.004184
 1635 Fit       0.004734
 1636 Fit       0.002175
 1637 Fit       0.002561
 1638 Fit       0.002171
 1639 Fit       0.001408
 1640 Fit       0.002848
 1641 Fit       0.002843
 1642 Fit       0.002483
 1643 Fit       0.001696
 1644 Fit       0.003204
 1645 Fit       0.002914
 1646 Fit       0.002279
 1647 Fit       0.003602
 1648 Fit       0.003181
 1649 Fit       0.001427
 1650 Fit       0.001082
 1651 Fit       0.000597
 1652 Fit       0.002785
 1653 Fit       0.002454
 1654 Fit       0.001146
 1655 Fit       0.002300
 1656 Fit       0.004116
 1657 Fit       0.004048
 1658 Fit       0.002736
 1659 Fit       0.003659
 1660 Fit       0.005984
 1661 Fit       0.004029
 1662 Fit       0.005058
 1663 Fit       0.000778
 1664 Fit       0.000535
 1665 Fit       0.001411
 1666 Fit       0.001737
 1667 Fit       0.000775
 1668 Fit       0.000925
 1669 Fit       0.002069
 1670 Fit       0.002418
 1671 Fit       0.001980
 1672 Fit       0.000941
 1673 Fit       0.001573
 1674 Fit       0.002292
 1675 Fit       0.002451
 1676 Fit       0.002180
 1677 Fit       0.001616
 1678 Fit       0.001923
 1679 Fit       0.002086
 1680 Fit       0.001932
 1681 Fit       0.000934
 1682 Fit       0.001113
 1683 Fit       0.000706
 1684 Fit       0.000193
 1685 Fit       0.000149
 1686 Fit       0.000576
 1687 Fit       0.000820
 1688 Fit       0.001090
 1689 Fit       0.000307
 1690 Fit      -0.000607
 1691 Fit      -0.001261
 1692 Fit      -0.001578
 1693 Fit      -0.001487
 1694 Fit      -0.000854
 1695 Fit      -0.003399
 1696 Fit      -0.003962
 1697 Fit      -0.004072
 1698 Fit      -0.002068
 1699 Fit      -0.000597
 1700 Fit      -0.004972
 1701 Fit      -0.002371
 1702 Fit      -0.000417
 1703 Fit       0.000839
 1704 Fit      -0.006350
 1705 Fit      -0.002507
 1706 Fit       0.000086
 1707 Fit       0.001746
 1708 Fit      -0.006230
 1709 Fit      -0.001232
 1710 Fit       0.001866
 1711 Fit      -0.007678
 1712 Fit      -0.008859
 1713 Fit      -0.008158
 1714 Fit      -0.010458
 1715 Fit      -0.015315
 1716 Fit      -0.018141
 1717 Fit      -0.015679
 1718 Fit      -0.011013
 1719 Fit      -0.018617
 1720 Fit       0.001360
 1721 Fit      -0.000764
 1722 Fit       0.002321
 1723 Fit       0.000042
 1724 Fit      -0.002856
 1725 Fit       0.003955
 1726 Fit       0.003407
 1727 Fit       0.000893
 1728 Fit      -0.002451
 1729 Fit       0.005311
 1730 Fit       0.005691
 1731 Fit      -0.002157
 1732 Fit      -0.012983
 1733 Fit      -0.013766
 1734 Fit      -0.012444
 1735 Fit      -0.012472
 1736 Fit      -0.011544
 1737 Fit      -0.011118
 1738 Fit      -0.012266
 1739 Fit      -0.012287
 1740 Fit      -0.011387
 1741 Fit      -0.008948
 1742 Fit      -0.009114
 1743 Fit      -0.011442
 1744 Fit      -0.011168
 1745 Fit      -0.011225
 1746 Fit      -0.010885
 1747 Fit      -0.009378
 1748 Fit      -0.005333
 1749 Fit      -0.007379
 1750 Fit      -0.010011
 1751 Fit      -0.010908
 1752 Fit      -0.009287
 1753 Fit      -0.009359
 1754 Fit      -0.009471
 1755 Fit      -0.008984
 1756 Fit      -0.006855
 1757 Fit      -0.001420
 1758 Fit      -0.003217
 1759 Fit      -0.007006
 1760 Fit      -0.009007
 1761 Fit      -0.009562
 1762 Fit      -0.009444
 1763 Fit      -0.007472
 1764 Fit      -0.007573
 1765 Fit      -0.007990
 1766 Fit      -0.007876
 1767 Fit      -0.006057
 1768 Fit      -0.001419
 1769 Fit      -0.011353
 1770 Fit      -0.008419
 1771 Fit      -0.007904
 1772 Fit      -0.008795
 1773 Fit      -0.009238
 1774 Fit      -0.008790
 1775 Fit      -0.007977
 1776 Fit      -0.006615
 1777 Fit      -0.006750
 1778 Fit      -0.007397
 1779 Fit      -0.007523
 1780 Fit      -0.006260
 1781 Fit      -0.004336
 1782 Fit      -0.004923
 1783 Fit      -0.008747
 1784 Fit      -0.011893
 1785 Fit      -0.012787
 1786 Fit      -0.012181
 1787 Fit      -0.011213
 1788 Fit      -0.010622
 1789 Fit      -0.009976
 1790 Fit      -0.008789
 1791 Fit      -0.007417
 1792 Fit      -0.007130
 1793 Fit      -0.007298
 1794 Fit      -0.008062
 1795 Fit      -0.008421
 1796 Fit      -0.008666
 1797 Fit      -0.010047
 1798 Fit      -0.011824
 1799 Fit      -0.012572
 1800 Fit      -0.012274
 1801 Fit      -0.011354
 1802 Fit      -0.009880
 1803 Fit      -0.008168
 1804 Fit      -0.008723
 1805 Fit      -0.009129
 1806 Fit      -0.010333
 1807 Fit      -0.011696
 1808 Fit      -0.011800
 1809 Fit      -0.010222
 1810 Fit      -0.010551
 1811 Fit       0.008462
 1812 Fit       0.004815
 1813 Fit       0.000708
 1814 Fit       0.007354
 1815 Fit       0.005908
 1816 Fit       0.003558
 1817 Fit      -0.000459
 1818 Fit       0.004094
 1819 Fit       0.004028
 1820 Fit       0.002039
 1821 Fit      -0.002552
 1822 Fit       0.000111
 1823 Fit      -0.000278
 1824 Fit       0.005754
 1825 Fit       0.011053
 1826 Fit       0.009587
 1827 Fit       0.006505
 1828 Fit       0.010638
 1829 Fit       0.009712
 1830 Fit       0.007854
 1831 Fit       0.004097
 1832 Fit       0.009956
 1833 Fit       0.009496
 1834 Fit       0.009360
 1835 Fit       0.008921
 1836 Fit       0.007884
 1837 Fit       0.005157
 1838 Fit       0.006372
 1839 Fit       0.007236
 1840 Fit       0.008117
 1841 Fit       0.016443
 1842 Fit       0.023974
 1843 Fit       0.028778
 1844 Fit       0.032296
 1845 Fit       0.017691
 1846 Fit       0.025486
 1847 Fit       0.029668
 1848 Fit       0.031729
 1849 Fit       0.032168
 1850 Fit       0.020127
 1851 Fit       0.026762
 1852 Fit       0.029052
 1853 Fit       0.027849
 1854 Fit       0.011258
 1855 Fit       0.022165
 1856 Fit       0.023590
 1857 Fit       0.015693
 1858 Fit       0.009357
 1859 Fit       0.007557
 1860 Fit       0.013806
 1861 Fit       0.006964
 1862 Fit       0.014535
 1863 Fit       0.006510
 1864 Fit       0.015145
 1865 Fit       0.008002
 1866 Fit       0.009978
 1867 Fit       0.005284
 1868 Fit       0.013271
 1869 Fit       0.005562
 1870 Fit       0.012351
 1871 Fit       0.006839
 1872 Fit       0.011685
 1873 Fit       0.012530
 1874 Fit       0.001678
 1875 Fit       0.004804
 -----------------------------------------------------------------
 Leave Link  602 at Thu Jan 30 17:08:18 2025, MaxMem=   104857600 cpu:               0.2 elap:               0.2
 (Enter /home/pb777/GAUSSIAN/g16/l9999.exe)

 Test job not archived.
 1\1\GINC-BUMBU\SP\RHF\6-31G(d)\C18H20Cl1N5O1\PB777\30-Jan-2025\0\\#P H
 F/6-31G* GEOM(AllCheck) Guess(Read) NoSymm Pop=mk IOp(6/33=2) GFInput 
 GFPrint\\Gaussian Calculation\\0,1\C,0,1.5815748201,29.0984171932,6.87
 19853511\C,0,-1.5184562518,31.7506667873,8.3755692833\C,0,-0.209653752
 1,26.3388530161,9.1786744848\C,0,-1.0734807312,25.552872521,10.1460942
 955\C,0,-0.6474445758,24.0817675423,10.1547884437\C,0,-1.4906714152,23
 .2587445156,11.127804796\C,0,-1.4530354425,23.8476863765,12.5368403537
 \C,0,-1.8760471058,25.3154333508,12.5326668787\C,0,-1.0314064265,26.13
 66924001,11.5605783105\C,0,5.2426758885,26.4019445925,4.9710026773\C,0
 ,4.920530724,25.2082135736,5.6072255283\C,0,3.8134779289,25.2025012078
 ,6.4490753413\C,0,3.0417704523,26.3389549622,6.6616954451\N,0,0.972396
 9142,28.1820671786,7.6450409417\C,0,-0.0946855128,28.5482961633,8.3437
 168674\O,0,-0.7227335857,27.6733049412,9.1163943095\C,0,-0.5711077901,
 29.8665233735,8.2715283274\N,0,-1.6207828773,30.5441141955,8.855363612
 6\N,0,-0.460918295,31.9131389233,7.5067734366\C,0,0.1686179011,30.7021
 799498,7.4243697772\N,0,1.2400794558,30.3822990133,6.7068839219\N,0,2.
 6877549661,28.7324203543,6.1444424964\C,0,3.3804454663,27.5340054114,6
 .0127622308\C,0,4.4957909796,27.5534509985,5.1600114556\H,0,-2.1811031
 177,32.5732079035,8.6128686649\H,0,-0.2298128452,25.899553064,8.173810
 2914\H,0,0.8354300528,26.369481878,9.5126631597\H,0,-2.1109713685,25.6
 080458744,9.7816921523\H,0,0.4113690674,24.0166139455,10.4500591581\H,
 0,-0.7171052461,23.6608797128,9.1427193216\H,0,-1.1432863035,22.218252
 4478,11.1377250521\H,0,-2.5311852431,23.2377127569,10.7722211916\H,0,-
 0.4302379522,23.7677447119,12.9341271496\H,0,-2.0955743642,23.26536017
 06,13.2088828513\H,0,-1.8033638764,25.7372555829,13.5426261052\H,0,-2.
 9341416978,25.3868666701,12.2408792927\H,0,-1.3672202253,27.1792162691
 ,11.5405817217\H,0,0.0143680319,26.1464353704,11.9064854348\Cl,0,6.620
 3836256,26.4619396919,3.9059352799\H,0,5.5185307317,24.318429151,5.445
 4128839\H,0,3.5407236374,24.2817184159,6.9579340108\H,0,2.1841580688,2
 6.3184664802,7.3187780783\H,0,-0.1898253477,32.7530019662,7.0192388963
 \H,0,3.0480663998,29.510827388,5.6106071178\H,0,4.779106237,28.4674420
 071,4.6454636194\\Version=ES64L-G16RevA.03\HF=-1499.906353\RMSD=5.551e
 -09\Dipole=-0.6107648,0.7548293,0.2331831\Quadrupole=-43.9706394,72.85
 46116,-28.8839722,-31.8938544,-1.6680603,15.3553877\PG=C01 [X(C18H20Cl
 1N5O1)]\\@


 THE ONLY TROUBLE WITH A SURE THING IS THE UNCERTAINTY.
     -- FROM A TEABAG (BELONGING TO W.H.?)
 Job cpu time:       0 days  0 hours  1 minutes 54.2 seconds.
 Elapsed time:       0 days  0 hours  1 minutes 54.6 seconds.
 File lengths (MBytes):  RWF=     95 Int=      0 D2E=      0 Chk=     17 Scr=      1
 Normal termination of Gaussian 16 at Thu Jan 30 17:08:18 2025.
