 Entering Gaussian System, Link 0=/home/pb777/GAUSSIAN/g16/g16
 Initial command:
 /home/pb777/GAUSSIAN/g16/l1.exe "/home/pb777/GAUSSIAN/g16/scratch/Gau-1062548.inp" -scrdir="/home/pb777/GAUSSIAN/g16/scratch/"
 Entering Link 1 = /home/pb777/GAUSSIAN/g16/l1.exe PID=   1062549.
  
 Copyright (c) 1988,1990,1992,1993,1995,1998,2003,2009,2016,
            Gaussian, Inc.  All Rights Reserved.
  
 This is part of the Gaussian(R) 16 program.  It is based on
 the Gaussian(R) 09 system (copyright 2009, Gaussian, Inc.),
 the Gaussian(R) 03 system (copyright 2003, Gaussian, Inc.),
 the Gaussian(R) 98 system (copyright 1998, Gaussian, Inc.),
 the Gaussian(R) 94 system (copyright 1995, Gaussian, Inc.),
 the Gaussian 92(TM) system (copyright 1992, Gaussian, Inc.),
 the Gaussian 90(TM) system (copyright 1990, Gaussian, Inc.),
 the Gaussian 88(TM) system (copyright 1988, Gaussian, Inc.),
 the Gaussian 86(TM) system (copyright 1986, Carnegie Mellon
 University), and the Gaussian 82(TM) system (copyright 1983,
 Carnegie Mellon University). Gaussian is a federally registered
 trademark of Gaussian, Inc.
  
 This software contains proprietary and confidential information,
 including trade secrets, belonging to Gaussian, Inc.
  
 This software is provided under written license and may be
 used, copied, transmitted, or stored only in accord with that
 written license.
  
 The following legend is applicable only to US Government
 contracts under FAR:
  
                    RESTRICTED RIGHTS LEGEND
  
 Use, reproduction and disclosure by the US Government is
 subject to restrictions as set forth in subparagraphs (a)
 and (c) of the Commercial Computer Software - Restricted
 Rights clause in FAR 52.227-19.
  
 Gaussian, Inc.
 340 Quinnipiac St., Bldg. 40, Wallingford CT 06492
  
  
 ---------------------------------------------------------------
 Warning -- This program may not be used in any manner that
 competes with the business of Gaussian, Inc. or will provide
 assistance to any competitor of Gaussian, Inc.  The licensee
 of this program is prohibited from giving any competitor of
 Gaussian, Inc. access to this program.  By using this program,
 the user acknowledges that Gaussian, Inc. is engaged in the
 business of creating and licensing software in the field of
 computational chemistry and represents and warrants to the
 licensee that it is not a competitor of Gaussian, Inc. and that
 it will not use this program in any manner prohibited above.
 ---------------------------------------------------------------
  

 Cite this work as:
 Gaussian 16, Revision A.03,
 M. J. Frisch, G. W. Trucks, H. B. Schlegel, G. E. Scuseria, 
 M. A. Robb, J. R. Cheeseman, G. Scalmani, V. Barone, 
 G. A. Petersson, H. Nakatsuji, X. Li, M. Caricato, A. V. Marenich, 
 J. Bloino, B. G. Janesko, R. Gomperts, B. Mennucci, H. P. Hratchian, 
 J. V. Ortiz, A. F. Izmaylov, J. L. Sonnenberg, D. Williams-Young, 
 F. Ding, F. Lipparini, F. Egidi, J. Goings, B. Peng, A. Petrone, 
 T. Henderson, D. Ranasinghe, V. G. Zakrzewski, J. Gao, N. Rega, 
 G. Zheng, W. Liang, M. Hada, M. Ehara, K. Toyota, R. Fukuda, 
 J. Hasegawa, M. Ishida, T. Nakajima, Y. Honda, O. Kitao, H. Nakai, 
 T. Vreven, K. Throssell, J. A. Montgomery, Jr., J. E. Peralta, 
 F. Ogliaro, M. J. Bearpark, J. J. Heyd, E. N. Brothers, K. N. Kudin, 
 V. N. Staroverov, T. A. Keith, R. Kobayashi, J. Normand, 
 K. Raghavachari, A. P. Rendell, J. C. Burant, S. S. Iyengar, 
 J. Tomasi, M. Cossi, J. M. Millam, M. Klene, C. Adamo, R. Cammi, 
 J. W. Ochterski, R. L. Martin, K. Morokuma, O. Farkas, 
 J. B. Foresman, and D. J. Fox, Gaussian, Inc., Wallingford CT, 2016.
 
 ******************************************
 Gaussian 16:  ES64L-G16RevA.03 25-Dec-2016
                30-Jan-2025 
 ******************************************
 %NPROC=1', f'%MEM=512MB
 Will use up to    1 processors via shared memory.
 %chk=binder_17.antechamber.chk
 ------------------------
 #P HF/6-31G* OPT(CalcFC)
 ------------------------
 1/10=4,18=20,19=15,38=1/1,3;
 2/9=110,12=2,17=6,18=5,40=1/2;
 3/5=1,6=6,7=1,11=9,25=1,30=1,71=2,140=1/1,2,3;
 4//1;
 5/5=2,38=5/2;
 8/6=4,10=90,11=11/1;
 11/6=1,8=1,9=11,15=111,16=1/1,2,10;
 10/6=1,13=1/2;
 6/7=2,8=2,9=2,10=2,28=1/1;
 7/10=1,18=20,25=1/1,2,3,16;
 1/10=4,18=20,19=15/3(2);
 2/9=110/2;
 99//99;
 2/9=110/2;
 3/5=1,6=6,7=1,11=9,25=1,30=1,71=1/1,2,3;
 4/5=5,16=3,69=1/1;
 5/5=2,38=5/2;
 7//1,2,3,16;
 1/18=20,19=15/3(-5);
 2/9=110/2;
 6/7=2,8=2,9=2,10=2,19=2,28=1/1;
 99/9=1/99;
 Leave Link    1 at Thu Jan 30 14:39:47 2025, MaxMem=           0 cpu:               0.0 elap:               0.0
 (Enter /home/pb777/GAUSSIAN/g16/l101.exe)
 --------------------
 Gaussian Calculation
 --------------------
 Symbolic Z-matrix:
 Charge =  0 Multiplicity = 1
 C                     1.422     29.034    6.768 
 C                    -1.45      32.163    8.008 
 C                    -0.582     26.625    8.978 
 C                    -1.25      25.767    10.081 
 C                    -1.355     24.331    9.527 
 C                    -1.653     23.273    10.603 
 C                    -0.781     23.343    11.865 
 C                    -0.712     24.779    12.432 
 C                    -0.388     25.86     11.38 
 C                     4.693     25.785    5.562 
 C                     4.77      25.231    6.838 
 C                     4.113     25.842    7.905 
 C                     3.375     27.005    7.683 
 N                     0.488     28.18     7.498 
 C                    -0.568     28.637    8.086 
 O                    -1.389     27.808    8.752 
 C                    -0.837     30.059    7.987 
 N                    -1.806     31.022    8.425 
 N                    -0.337     32.096    7.318 
 C                     0.012     30.844    7.311 
 N                     1.172     30.278    6.709 
 N                     2.523     28.721    6.157 
 C                     3.284     27.569    6.402 
 C                     3.97      26.958    5.352 
 H                    -1.974     33.085    8.159 
 H                    -0.541     26.054    8.043 
 H                     0.454     26.776    9.31 
 H                    -2.258     26.125    10.296 
 H                    -0.409     24.042    9.063 
 H                    -2.106     24.282    8.736 
 H                    -1.609     22.271    10.176 
 H                    -2.684     23.422    10.916 
 H                     0.23      23.014    11.618 
 H                    -1.152     22.652    12.623 
 H                    -0.026     24.811    13.272 
 H                    -1.687     25.018    12.862 
 H                    -0.474     26.853    11.824 
 H                     0.671     25.729    11.148 
 Br                    5.561     24.926    4.105 
 H                     5.351     24.337    7. 
 H                     4.171     25.418    8.899 
 H                     2.86      27.465    8.513 
 H                     0.088     32.896    6.844 
 H                     2.969     29.472    5.648 
 H                     3.934     27.383    4.365 
 
 ITRead=  0  0  0  0  0  0  0  0  0  0  0  0  0  0  0  0  0  0  0  0
 ITRead=  0  0  0  0  0  0  0  0  0  0  0  0  0  0  0  0  0  0  0  0
 ITRead=  0  0  0  0  0
 MicOpt= -1 -1 -1 -1 -1 -1 -1 -1 -1 -1 -1 -1 -1 -1 -1 -1 -1 -1 -1 -1
 MicOpt= -1 -1 -1 -1 -1 -1 -1 -1 -1 -1 -1 -1 -1 -1 -1 -1 -1 -1 -1 -1
 MicOpt= -1 -1 -1 -1 -1
 NAtoms=     45 NQM=       45 NQMF=       0 NMMI=      0 NMMIF=      0
                NMic=       0 NMicF=      0.
                    Isotopes and Nuclear Properties:
 (Nuclear quadrupole moments (NQMom) in fm**2, nuclear magnetic moments (NMagM)
  in nuclear magnetons)

  Atom         1           2           3           4           5           6           7           8           9          10
 IAtWgt=          12          12          12          12          12          12          12          12          12          12
 AtmWgt=  12.0000000  12.0000000  12.0000000  12.0000000  12.0000000  12.0000000  12.0000000  12.0000000  12.0000000  12.0000000
 NucSpn=           0           0           0           0           0           0           0           0           0           0
 AtZEff=  -0.0000000  -0.0000000  -0.0000000  -0.0000000  -0.0000000  -0.0000000  -0.0000000  -0.0000000  -0.0000000  -0.0000000
 NQMom=    0.0000000   0.0000000   0.0000000   0.0000000   0.0000000   0.0000000   0.0000000   0.0000000   0.0000000   0.0000000
 NMagM=    0.0000000   0.0000000   0.0000000   0.0000000   0.0000000   0.0000000   0.0000000   0.0000000   0.0000000   0.0000000
 AtZNuc=   6.0000000   6.0000000   6.0000000   6.0000000   6.0000000   6.0000000   6.0000000   6.0000000   6.0000000   6.0000000

  Atom        11          12          13          14          15          16          17          18          19          20
 IAtWgt=          12          12          12          14          12          16          12          14          14          12
 AtmWgt=  12.0000000  12.0000000  12.0000000  14.0030740  12.0000000  15.9949146  12.0000000  14.0030740  14.0030740  12.0000000
 NucSpn=           0           0           0           2           0           0           0           2           2           0
 AtZEff=  -0.0000000  -0.0000000  -0.0000000  -0.0000000  -0.0000000  -0.0000000  -0.0000000  -0.0000000  -0.0000000  -0.0000000
 NQMom=    0.0000000   0.0000000   0.0000000   2.0440000   0.0000000   0.0000000   0.0000000   2.0440000   2.0440000   0.0000000
 NMagM=    0.0000000   0.0000000   0.0000000   0.4037610   0.0000000   0.0000000   0.0000000   0.4037610   0.4037610   0.0000000
 AtZNuc=   6.0000000   6.0000000   6.0000000   7.0000000   6.0000000   8.0000000   6.0000000   7.0000000   7.0000000   6.0000000

  Atom        21          22          23          24          25          26          27          28          29          30
 IAtWgt=          14          14          12          12           1           1           1           1           1           1
 AtmWgt=  14.0030740  14.0030740  12.0000000  12.0000000   1.0078250   1.0078250   1.0078250   1.0078250   1.0078250   1.0078250
 NucSpn=           2           2           0           0           1           1           1           1           1           1
 AtZEff=  -0.0000000  -0.0000000  -0.0000000  -0.0000000  -0.0000000  -0.0000000  -0.0000000  -0.0000000  -0.0000000  -0.0000000
 NQMom=    2.0440000   2.0440000   0.0000000   0.0000000   0.0000000   0.0000000   0.0000000   0.0000000   0.0000000   0.0000000
 NMagM=    0.4037610   0.4037610   0.0000000   0.0000000   2.7928460   2.7928460   2.7928460   2.7928460   2.7928460   2.7928460
 AtZNuc=   7.0000000   7.0000000   6.0000000   6.0000000   1.0000000   1.0000000   1.0000000   1.0000000   1.0000000   1.0000000

  Atom        31          32          33          34          35          36          37          38          39          40
 IAtWgt=           1           1           1           1           1           1           1           1          79           1
 AtmWgt=   1.0078250   1.0078250   1.0078250   1.0078250   1.0078250   1.0078250   1.0078250   1.0078250  78.9183361   1.0078250
 NucSpn=           1           1           1           1           1           1           1           1           3           1
 AtZEff=  -0.0000000  -0.0000000  -0.0000000  -0.0000000  -0.0000000  -0.0000000  -0.0000000  -0.0000000  -0.0000000  -0.0000000
 NQMom=    0.0000000   0.0000000   0.0000000   0.0000000   0.0000000   0.0000000   0.0000000   0.0000000  31.3000000   0.0000000
 NMagM=    2.7928460   2.7928460   2.7928460   2.7928460   2.7928460   2.7928460   2.7928460   2.7928460   2.1063990   2.7928460
 AtZNuc=   1.0000000   1.0000000   1.0000000   1.0000000   1.0000000   1.0000000   1.0000000   1.0000000  35.0000000   1.0000000

  Atom        41          42          43          44          45
 IAtWgt=           1           1           1           1           1
 AtmWgt=   1.0078250   1.0078250   1.0078250   1.0078250   1.0078250
 NucSpn=           1           1           1           1           1
 AtZEff=  -0.0000000  -0.0000000  -0.0000000  -0.0000000  -0.0000000
 NQMom=    0.0000000   0.0000000   0.0000000   0.0000000   0.0000000
 NMagM=    2.7928460   2.7928460   2.7928460   2.7928460   2.7928460
 AtZNuc=   1.0000000   1.0000000   1.0000000   1.0000000   1.0000000
 Leave Link  101 at Thu Jan 30 14:39:47 2025, MaxMem=   104857600 cpu:               0.1 elap:               0.1
 (Enter /home/pb777/GAUSSIAN/g16/l103.exe)

 GradGradGradGradGradGradGradGradGradGradGradGradGradGradGradGradGradGrad
 Berny optimization.
 Initialization pass.
                           ----------------------------
                           !    Initial Parameters    !
                           ! (Angstroms and Degrees)  !
 --------------------------                            --------------------------
 ! Name  Definition              Value          Derivative Info.                !
 --------------------------------------------------------------------------------
 ! R1    R(1,14)                 1.461          calculate D2E/DX2 analytically  !
 ! R2    R(1,21)                 1.2702         calculate D2E/DX2 analytically  !
 ! R3    R(1,22)                 1.2975         calculate D2E/DX2 analytically  !
 ! R4    R(2,18)                 1.2659         calculate D2E/DX2 analytically  !
 ! R5    R(2,19)                 1.3112         calculate D2E/DX2 analytically  !
 ! R6    R(2,25)                 1.0712         calculate D2E/DX2 analytically  !
 ! R7    R(3,4)                  1.5489         calculate D2E/DX2 analytically  !
 ! R8    R(3,16)                 1.4498         calculate D2E/DX2 analytically  !
 ! R9    R(3,26)                 1.0963         calculate D2E/DX2 analytically  !
 ! R10   R(3,27)                 1.0983         calculate D2E/DX2 analytically  !
 ! R11   R(4,5)                  1.5427         calculate D2E/DX2 analytically  !
 ! R12   R(4,9)                  1.5618         calculate D2E/DX2 analytically  !
 ! R13   R(4,28)                 1.0911         calculate D2E/DX2 analytically  !
 ! R14   R(5,6)                  1.5382         calculate D2E/DX2 analytically  !
 ! R15   R(5,29)                 1.0926         calculate D2E/DX2 analytically  !
 ! R16   R(5,30)                 1.0918         calculate D2E/DX2 analytically  !
 ! R17   R(6,7)                  1.5356         calculate D2E/DX2 analytically  !
 ! R18   R(6,31)                 1.0901         calculate D2E/DX2 analytically  !
 ! R19   R(6,32)                 1.0877         calculate D2E/DX2 analytically  !
 ! R20   R(7,8)                  1.5454         calculate D2E/DX2 analytically  !
 ! R21   R(7,33)                 1.0915         calculate D2E/DX2 analytically  !
 ! R22   R(7,34)                 1.0907         calculate D2E/DX2 analytically  !
 ! R23   R(8,9)                  1.5428         calculate D2E/DX2 analytically  !
 ! R24   R(8,35)                 1.085          calculate D2E/DX2 analytically  !
 ! R25   R(8,36)                 1.0921         calculate D2E/DX2 analytically  !
 ! R26   R(9,37)                 1.0911         calculate D2E/DX2 analytically  !
 ! R27   R(9,38)                 1.092          calculate D2E/DX2 analytically  !
 ! R28   R(10,11)                1.3932         calculate D2E/DX2 analytically  !
 ! R29   R(10,24)                1.3938         calculate D2E/DX2 analytically  !
 ! R30   R(10,39)                1.9011         calculate D2E/DX2 analytically  !
 ! R31   R(11,12)                1.3941         calculate D2E/DX2 analytically  !
 ! R32   R(11,40)                1.0784         calculate D2E/DX2 analytically  !
 ! R33   R(12,13)                1.3952         calculate D2E/DX2 analytically  !
 ! R34   R(12,41)                1.0822         calculate D2E/DX2 analytically  !
 ! R35   R(13,23)                1.4026         calculate D2E/DX2 analytically  !
 ! R36   R(13,42)                1.0797         calculate D2E/DX2 analytically  !
 ! R37   R(14,15)                1.2922         calculate D2E/DX2 analytically  !
 ! R38   R(15,16)                1.3434         calculate D2E/DX2 analytically  !
 ! R39   R(15,17)                1.4506         calculate D2E/DX2 analytically  !
 ! R40   R(17,18)                1.4346         calculate D2E/DX2 analytically  !
 ! R41   R(17,20)                1.3394         calculate D2E/DX2 analytically  !
 ! R42   R(19,20)                1.2998         calculate D2E/DX2 analytically  !
 ! R43   R(19,43)                1.0224         calculate D2E/DX2 analytically  !
 ! R44   R(20,21)                1.4242         calculate D2E/DX2 analytically  !
 ! R45   R(22,23)                1.4022         calculate D2E/DX2 analytically  !
 ! R46   R(22,44)                1.0109         calculate D2E/DX2 analytically  !
 ! R47   R(23,24)                1.3951         calculate D2E/DX2 analytically  !
 ! R48   R(24,45)                1.0752         calculate D2E/DX2 analytically  !
 ! A1    A(14,1,21)            118.0237         calculate D2E/DX2 analytically  !
 ! A2    A(14,1,22)            129.5499         calculate D2E/DX2 analytically  !
 ! A3    A(21,1,22)            112.4195         calculate D2E/DX2 analytically  !
 ! A4    A(18,2,19)            111.4686         calculate D2E/DX2 analytically  !
 ! A5    A(18,2,25)            126.2845         calculate D2E/DX2 analytically  !
 ! A6    A(19,2,25)            122.2337         calculate D2E/DX2 analytically  !
 ! A7    A(4,3,16)             108.8423         calculate D2E/DX2 analytically  !
 ! A8    A(4,3,26)             109.5696         calculate D2E/DX2 analytically  !
 ! A9    A(4,3,27)             105.5277         calculate D2E/DX2 analytically  !
 ! A10   A(16,3,26)            108.2318         calculate D2E/DX2 analytically  !
 ! A11   A(16,3,27)            117.3866         calculate D2E/DX2 analytically  !
 ! A12   A(26,3,27)            107.1051         calculate D2E/DX2 analytically  !
 ! A13   A(3,4,5)              106.8132         calculate D2E/DX2 analytically  !
 ! A14   A(3,4,9)              108.7409         calculate D2E/DX2 analytically  !
 ! A15   A(3,4,28)             110.9167         calculate D2E/DX2 analytically  !
 ! A16   A(5,4,9)              113.059          calculate D2E/DX2 analytically  !
 ! A17   A(5,4,28)             108.2581         calculate D2E/DX2 analytically  !
 ! A18   A(9,4,28)             109.0551         calculate D2E/DX2 analytically  !
 ! A19   A(4,5,6)              113.7174         calculate D2E/DX2 analytically  !
 ! A20   A(4,5,29)             109.8638         calculate D2E/DX2 analytically  !
 ! A21   A(4,5,30)             110.4108         calculate D2E/DX2 analytically  !
 ! A22   A(6,5,29)             106.4326         calculate D2E/DX2 analytically  !
 ! A23   A(6,5,30)             110.0394         calculate D2E/DX2 analytically  !
 ! A24   A(29,5,30)            106.0225         calculate D2E/DX2 analytically  !
 ! A25   A(5,6,7)              115.6925         calculate D2E/DX2 analytically  !
 ! A26   A(5,6,31)             110.5129         calculate D2E/DX2 analytically  !
 ! A27   A(5,6,32)             106.9005         calculate D2E/DX2 analytically  !
 ! A28   A(7,6,31)             109.9325         calculate D2E/DX2 analytically  !
 ! A29   A(7,6,32)             107.1888         calculate D2E/DX2 analytically  !
 ! A30   A(31,6,32)            106.0749         calculate D2E/DX2 analytically  !
 ! A31   A(6,7,8)              111.6688         calculate D2E/DX2 analytically  !
 ! A32   A(6,7,33)             109.0426         calculate D2E/DX2 analytically  !
 ! A33   A(6,7,34)             110.4329         calculate D2E/DX2 analytically  !
 ! A34   A(8,7,33)             108.7686         calculate D2E/DX2 analytically  !
 ! A35   A(8,7,34)             110.4189         calculate D2E/DX2 analytically  !
 ! A36   A(33,7,34)            106.3414         calculate D2E/DX2 analytically  !
 ! A37   A(7,8,9)              114.2214         calculate D2E/DX2 analytically  !
 ! A38   A(7,8,35)             109.8572         calculate D2E/DX2 analytically  !
 ! A39   A(7,8,36)             107.9358         calculate D2E/DX2 analytically  !
 ! A40   A(9,8,35)             111.991          calculate D2E/DX2 analytically  !
 ! A41   A(9,8,36)             107.616          calculate D2E/DX2 analytically  !
 ! A42   A(35,8,36)            104.6661         calculate D2E/DX2 analytically  !
 ! A43   A(4,9,8)              114.1745         calculate D2E/DX2 analytically  !
 ! A44   A(4,9,37)             110.4349         calculate D2E/DX2 analytically  !
 ! A45   A(4,9,38)             110.5735         calculate D2E/DX2 analytically  !
 ! A46   A(8,9,37)             110.0986         calculate D2E/DX2 analytically  !
 ! A47   A(8,9,38)             105.3356         calculate D2E/DX2 analytically  !
 ! A48   A(37,9,38)            105.7868         calculate D2E/DX2 analytically  !
 ! A49   A(11,10,24)           120.0862         calculate D2E/DX2 analytically  !
 ! A50   A(11,10,39)           119.803          calculate D2E/DX2 analytically  !
 ! A51   A(24,10,39)           120.1075         calculate D2E/DX2 analytically  !
 ! A52   A(10,11,12)           120.0439         calculate D2E/DX2 analytically  !
 ! A53   A(10,11,40)           119.8011         calculate D2E/DX2 analytically  !
 ! A54   A(12,11,40)           120.1488         calculate D2E/DX2 analytically  !
 ! A55   A(11,12,13)           119.5282         calculate D2E/DX2 analytically  !
 ! A56   A(11,12,41)           120.3992         calculate D2E/DX2 analytically  !
 ! A57   A(13,12,41)           120.0724         calculate D2E/DX2 analytically  !
 ! A58   A(12,13,23)           120.9863         calculate D2E/DX2 analytically  !
 ! A59   A(12,13,42)           119.0217         calculate D2E/DX2 analytically  !
 ! A60   A(23,13,42)           119.9882         calculate D2E/DX2 analytically  !
 ! A61   A(1,14,15)            122.8931         calculate D2E/DX2 analytically  !
 ! A62   A(14,15,16)           120.4487         calculate D2E/DX2 analytically  !
 ! A63   A(14,15,17)           117.8516         calculate D2E/DX2 analytically  !
 ! A64   A(16,15,17)           121.696          calculate D2E/DX2 analytically  !
 ! A65   A(3,16,15)            103.9239         calculate D2E/DX2 analytically  !
 ! A66   A(15,17,18)           139.6791         calculate D2E/DX2 analytically  !
 ! A67   A(15,17,20)           119.4344         calculate D2E/DX2 analytically  !
 ! A68   A(18,17,20)           100.8835         calculate D2E/DX2 analytically  !
 ! A69   A(2,18,17)            108.3309         calculate D2E/DX2 analytically  !
 ! A70   A(2,19,20)            106.2584         calculate D2E/DX2 analytically  !
 ! A71   A(2,19,43)            123.8364         calculate D2E/DX2 analytically  !
 ! A72   A(20,19,43)           129.7628         calculate D2E/DX2 analytically  !
 ! A73   A(17,20,19)           113.056          calculate D2E/DX2 analytically  !
 ! A74   A(17,20,21)           119.7814         calculate D2E/DX2 analytically  !
 ! A75   A(19,20,21)           127.1419         calculate D2E/DX2 analytically  !
 ! A76   A(1,21,20)            121.9969         calculate D2E/DX2 analytically  !
 ! A77   A(1,22,23)            125.1996         calculate D2E/DX2 analytically  !
 ! A78   A(1,22,44)            115.6107         calculate D2E/DX2 analytically  !
 ! A79   A(23,22,44)           117.3129         calculate D2E/DX2 analytically  !
 ! A80   A(13,23,22)           121.677          calculate D2E/DX2 analytically  !
 ! A81   A(13,23,24)           118.6431         calculate D2E/DX2 analytically  !
 ! A82   A(22,23,24)           119.6797         calculate D2E/DX2 analytically  !
 ! A83   A(10,24,23)           120.679          calculate D2E/DX2 analytically  !
 ! A84   A(10,24,45)           119.23           calculate D2E/DX2 analytically  !
 ! A85   A(23,24,45)           120.0856         calculate D2E/DX2 analytically  !
 ! D1    D(21,1,14,15)          -0.3723         calculate D2E/DX2 analytically  !
 ! D2    D(22,1,14,15)         178.5919         calculate D2E/DX2 analytically  !
 ! D3    D(14,1,21,20)          -0.941          calculate D2E/DX2 analytically  !
 ! D4    D(22,1,21,20)         179.9229         calculate D2E/DX2 analytically  !
 ! D5    D(14,1,22,23)         -21.1562         calculate D2E/DX2 analytically  !
 ! D6    D(14,1,22,44)         174.9307         calculate D2E/DX2 analytically  !
 ! D7    D(21,1,22,23)         157.8548         calculate D2E/DX2 analytically  !
 ! D8    D(21,1,22,44)          -6.0583         calculate D2E/DX2 analytically  !
 ! D9    D(19,2,18,17)           0.3509         calculate D2E/DX2 analytically  !
 ! D10   D(25,2,18,17)         179.0458         calculate D2E/DX2 analytically  !
 ! D11   D(18,2,19,20)          -0.0571         calculate D2E/DX2 analytically  !
 ! D12   D(18,2,19,43)         175.9787         calculate D2E/DX2 analytically  !
 ! D13   D(25,2,19,20)        -178.8134         calculate D2E/DX2 analytically  !
 ! D14   D(25,2,19,43)          -2.7777         calculate D2E/DX2 analytically  !
 ! D15   D(16,3,4,5)           129.1727         calculate D2E/DX2 analytically  !
 ! D16   D(16,3,4,9)          -108.5107         calculate D2E/DX2 analytically  !
 ! D17   D(16,3,4,28)           11.4065         calculate D2E/DX2 analytically  !
 ! D18   D(26,3,4,5)            10.9985         calculate D2E/DX2 analytically  !
 ! D19   D(26,3,4,9)           133.3151         calculate D2E/DX2 analytically  !
 ! D20   D(26,3,4,28)         -106.7678         calculate D2E/DX2 analytically  !
 ! D21   D(27,3,4,5)          -104.0099         calculate D2E/DX2 analytically  !
 ! D22   D(27,3,4,9)            18.3066         calculate D2E/DX2 analytically  !
 ! D23   D(27,3,4,28)          138.2238         calculate D2E/DX2 analytically  !
 ! D24   D(4,3,16,15)          163.4859         calculate D2E/DX2 analytically  !
 ! D25   D(26,3,16,15)         -77.4995         calculate D2E/DX2 analytically  !
 ! D26   D(27,3,16,15)          43.7928         calculate D2E/DX2 analytically  !
 ! D27   D(3,4,5,6)            164.9645         calculate D2E/DX2 analytically  !
 ! D28   D(3,4,5,29)            45.8044         calculate D2E/DX2 analytically  !
 ! D29   D(3,4,5,30)           -70.7837         calculate D2E/DX2 analytically  !
 ! D30   D(9,4,5,6)             45.3994         calculate D2E/DX2 analytically  !
 ! D31   D(9,4,5,29)           -73.7607         calculate D2E/DX2 analytically  !
 ! D32   D(9,4,5,30)           169.6512         calculate D2E/DX2 analytically  !
 ! D33   D(28,4,5,6)           -75.5363         calculate D2E/DX2 analytically  !
 ! D34   D(28,4,5,29)          165.3036         calculate D2E/DX2 analytically  !
 ! D35   D(28,4,5,30)           48.7155         calculate D2E/DX2 analytically  !
 ! D36   D(3,4,9,8)           -164.5526         calculate D2E/DX2 analytically  !
 ! D37   D(3,4,9,37)            70.7518         calculate D2E/DX2 analytically  !
 ! D38   D(3,4,9,38)           -45.9892         calculate D2E/DX2 analytically  !
 ! D39   D(5,4,9,8)            -46.1023         calculate D2E/DX2 analytically  !
 ! D40   D(5,4,9,37)          -170.7978         calculate D2E/DX2 analytically  !
 ! D41   D(5,4,9,38)            72.4611         calculate D2E/DX2 analytically  !
 ! D42   D(28,4,9,8)            74.3803         calculate D2E/DX2 analytically  !
 ! D43   D(28,4,9,37)          -50.3152         calculate D2E/DX2 analytically  !
 ! D44   D(28,4,9,38)         -167.0562         calculate D2E/DX2 analytically  !
 ! D45   D(4,5,6,7)            -48.1359         calculate D2E/DX2 analytically  !
 ! D46   D(4,5,6,31)          -173.8634         calculate D2E/DX2 analytically  !
 ! D47   D(4,5,6,32)            71.1339         calculate D2E/DX2 analytically  !
 ! D48   D(29,5,6,7)            72.9625         calculate D2E/DX2 analytically  !
 ! D49   D(29,5,6,31)          -52.765          calculate D2E/DX2 analytically  !
 ! D50   D(29,5,6,32)         -167.7677         calculate D2E/DX2 analytically  !
 ! D51   D(30,5,6,7)          -172.588          calculate D2E/DX2 analytically  !
 ! D52   D(30,5,6,31)           61.6846         calculate D2E/DX2 analytically  !
 ! D53   D(30,5,6,32)          -53.3181         calculate D2E/DX2 analytically  !
 ! D54   D(5,6,7,8)             48.8375         calculate D2E/DX2 analytically  !
 ! D55   D(5,6,7,33)           -71.3873         calculate D2E/DX2 analytically  !
 ! D56   D(5,6,7,34)           172.1111         calculate D2E/DX2 analytically  !
 ! D57   D(31,6,7,8)           174.8605         calculate D2E/DX2 analytically  !
 ! D58   D(31,6,7,33)           54.6357         calculate D2E/DX2 analytically  !
 ! D59   D(31,6,7,34)          -61.8659         calculate D2E/DX2 analytically  !
 ! D60   D(32,6,7,8)           -70.2741         calculate D2E/DX2 analytically  !
 ! D61   D(32,6,7,33)          169.5011         calculate D2E/DX2 analytically  !
 ! D62   D(32,6,7,34)           52.9995         calculate D2E/DX2 analytically  !
 ! D63   D(6,7,8,9)            -48.5808         calculate D2E/DX2 analytically  !
 ! D64   D(6,7,8,35)          -175.3816         calculate D2E/DX2 analytically  !
 ! D65   D(6,7,8,36)            71.0503         calculate D2E/DX2 analytically  !
 ! D66   D(33,7,8,9)            71.8045         calculate D2E/DX2 analytically  !
 ! D67   D(33,7,8,35)          -54.9963         calculate D2E/DX2 analytically  !
 ! D68   D(33,7,8,36)         -168.5644         calculate D2E/DX2 analytically  !
 ! D69   D(34,7,8,9)          -171.8623         calculate D2E/DX2 analytically  !
 ! D70   D(34,7,8,35)           61.3369         calculate D2E/DX2 analytically  !
 ! D71   D(34,7,8,36)          -52.2312         calculate D2E/DX2 analytically  !
 ! D72   D(7,8,9,4)             48.3294         calculate D2E/DX2 analytically  !
 ! D73   D(7,8,9,37)           173.2037         calculate D2E/DX2 analytically  !
 ! D74   D(7,8,9,38)           -73.1715         calculate D2E/DX2 analytically  !
 ! D75   D(35,8,9,4)           174.0172         calculate D2E/DX2 analytically  !
 ! D76   D(35,8,9,37)          -61.1085         calculate D2E/DX2 analytically  !
 ! D77   D(35,8,9,38)           52.5164         calculate D2E/DX2 analytically  !
 ! D78   D(36,8,9,4)           -71.4813         calculate D2E/DX2 analytically  !
 ! D79   D(36,8,9,37)           53.393          calculate D2E/DX2 analytically  !
 ! D80   D(36,8,9,38)          167.0179         calculate D2E/DX2 analytically  !
 ! D81   D(24,10,11,12)          0.6252         calculate D2E/DX2 analytically  !
 ! D82   D(24,10,11,40)       -178.4705         calculate D2E/DX2 analytically  !
 ! D83   D(39,10,11,12)       -178.7055         calculate D2E/DX2 analytically  !
 ! D84   D(39,10,11,40)          2.1988         calculate D2E/DX2 analytically  !
 ! D85   D(11,10,24,23)         -1.9167         calculate D2E/DX2 analytically  !
 ! D86   D(11,10,24,45)        178.9341         calculate D2E/DX2 analytically  !
 ! D87   D(39,10,24,23)        177.412          calculate D2E/DX2 analytically  !
 ! D88   D(39,10,24,45)         -1.7372         calculate D2E/DX2 analytically  !
 ! D89   D(10,11,12,13)          0.3213         calculate D2E/DX2 analytically  !
 ! D90   D(10,11,12,41)       -179.845          calculate D2E/DX2 analytically  !
 ! D91   D(40,11,12,13)        179.4138         calculate D2E/DX2 analytically  !
 ! D92   D(40,11,12,41)         -0.7525         calculate D2E/DX2 analytically  !
 ! D93   D(11,12,13,23)          0.0017         calculate D2E/DX2 analytically  !
 ! D94   D(11,12,13,42)        179.2943         calculate D2E/DX2 analytically  !
 ! D95   D(41,12,13,23)       -179.8326         calculate D2E/DX2 analytically  !
 ! D96   D(41,12,13,42)         -0.5399         calculate D2E/DX2 analytically  !
 ! D97   D(12,13,23,22)        178.606          calculate D2E/DX2 analytically  !
 ! D98   D(12,13,23,24)         -1.2528         calculate D2E/DX2 analytically  !
 ! D99   D(42,13,23,22)         -0.6798         calculate D2E/DX2 analytically  !
 ! D100  D(42,13,23,24)        179.4614         calculate D2E/DX2 analytically  !
 ! D101  D(1,14,15,16)        -179.5335         calculate D2E/DX2 analytically  !
 ! D102  D(1,14,15,17)           1.1588         calculate D2E/DX2 analytically  !
 ! D103  D(14,15,16,3)          18.2854         calculate D2E/DX2 analytically  !
 ! D104  D(17,15,16,3)        -162.4339         calculate D2E/DX2 analytically  !
 ! D105  D(14,15,17,18)       -179.8954         calculate D2E/DX2 analytically  !
 ! D106  D(14,15,17,20)         -0.6675         calculate D2E/DX2 analytically  !
 ! D107  D(16,15,17,18)          0.806          calculate D2E/DX2 analytically  !
 ! D108  D(16,15,17,20)       -179.9661         calculate D2E/DX2 analytically  !
 ! D109  D(15,17,18,2)         178.8317         calculate D2E/DX2 analytically  !
 ! D110  D(20,17,18,2)          -0.4835         calculate D2E/DX2 analytically  !
 ! D111  D(15,17,20,19)       -179.0241         calculate D2E/DX2 analytically  !
 ! D112  D(15,17,20,21)         -0.5623         calculate D2E/DX2 analytically  !
 ! D113  D(18,17,20,19)          0.4672         calculate D2E/DX2 analytically  !
 ! D114  D(18,17,20,21)        178.9289         calculate D2E/DX2 analytically  !
 ! D115  D(2,19,20,17)          -0.2906         calculate D2E/DX2 analytically  !
 ! D116  D(2,19,20,21)        -178.6158         calculate D2E/DX2 analytically  !
 ! D117  D(43,19,20,17)       -176.0064         calculate D2E/DX2 analytically  !
 ! D118  D(43,19,20,21)          5.6685         calculate D2E/DX2 analytically  !
 ! D119  D(17,20,21,1)           1.4077         calculate D2E/DX2 analytically  !
 ! D120  D(19,20,21,1)         179.6321         calculate D2E/DX2 analytically  !
 ! D121  D(1,22,23,13)         -33.3764         calculate D2E/DX2 analytically  !
 ! D122  D(1,22,23,24)         146.481          calculate D2E/DX2 analytically  !
 ! D123  D(44,22,23,13)        130.2904         calculate D2E/DX2 analytically  !
 ! D124  D(44,22,23,24)        -49.8522         calculate D2E/DX2 analytically  !
 ! D125  D(13,23,24,10)          2.2062         calculate D2E/DX2 analytically  !
 ! D126  D(13,23,24,45)       -178.6518         calculate D2E/DX2 analytically  !
 ! D127  D(22,23,24,10)       -177.6555         calculate D2E/DX2 analytically  !
 ! D128  D(22,23,24,45)          1.4864         calculate D2E/DX2 analytically  !
 --------------------------------------------------------------------------------
 Trust Radius=3.00D-01 FncErr=1.00D-07 GrdErr=1.00D-07 EigMax=2.50D+02 EigMin=1.00D-04
 Number of steps in this run=    270 maximum allowed number of steps=    270.
 GradGradGradGradGradGradGradGradGradGradGradGradGradGradGradGradGradGrad

 Leave Link  103 at Thu Jan 30 14:39:47 2025, MaxMem=   104857600 cpu:               0.0 elap:               0.0
 (Enter /home/pb777/GAUSSIAN/g16/l202.exe)
                          Input orientation:                          
 ---------------------------------------------------------------------
 Center     Atomic      Atomic             Coordinates (Angstroms)
 Number     Number       Type             X           Y           Z
 ---------------------------------------------------------------------
      1          6           0        1.422000   29.034000    6.768000
      2          6           0       -1.450000   32.163000    8.008000
      3          6           0       -0.582000   26.625000    8.978000
      4          6           0       -1.250000   25.767000   10.081000
      5          6           0       -1.355000   24.331000    9.527000
      6          6           0       -1.653000   23.273000   10.603000
      7          6           0       -0.781000   23.343000   11.865000
      8          6           0       -0.712000   24.779000   12.432000
      9          6           0       -0.388000   25.860000   11.380000
     10          6           0        4.693000   25.785000    5.562000
     11          6           0        4.770000   25.231000    6.838000
     12          6           0        4.113000   25.842000    7.905000
     13          6           0        3.375000   27.005000    7.683000
     14          7           0        0.488000   28.180000    7.498000
     15          6           0       -0.568000   28.637000    8.086000
     16          8           0       -1.389000   27.808000    8.752000
     17          6           0       -0.837000   30.059000    7.987000
     18          7           0       -1.806000   31.022000    8.425000
     19          7           0       -0.337000   32.096000    7.318000
     20          6           0        0.012000   30.844000    7.311000
     21          7           0        1.172000   30.278000    6.709000
     22          7           0        2.523000   28.721000    6.157000
     23          6           0        3.284000   27.569000    6.402000
     24          6           0        3.970000   26.958000    5.352000
     25          1           0       -1.974000   33.085000    8.159000
     26          1           0       -0.541000   26.054000    8.043000
     27          1           0        0.454000   26.776000    9.310000
     28          1           0       -2.258000   26.125000   10.296000
     29          1           0       -0.409000   24.042000    9.063000
     30          1           0       -2.106000   24.282000    8.736000
     31          1           0       -1.609000   22.271000   10.176000
     32          1           0       -2.684000   23.422000   10.916000
     33          1           0        0.230000   23.014000   11.618000
     34          1           0       -1.152000   22.652000   12.623000
     35          1           0       -0.026000   24.811000   13.272000
     36          1           0       -1.687000   25.018000   12.862000
     37          1           0       -0.474000   26.853000   11.824000
     38          1           0        0.671000   25.729000   11.148000
     39         35           0        5.561000   24.926000    4.105000
     40          1           0        5.351000   24.337000    7.000000
     41          1           0        4.171000   25.418000    8.899000
     42          1           0        2.860000   27.465000    8.513000
     43          1           0        0.088000   32.896000    6.844000
     44          1           0        2.969000   29.472000    5.648000
     45          1           0        3.934000   27.383000    4.365000
 ---------------------------------------------------------------------
                    Distance matrix (angstroms):
                    1          2          3          4          5
     1  C    0.000000
     2  C    4.424548   0.000000
     3  C    3.834501   5.688916   0.000000
     4  C    5.365523   6.726525   1.548870   0.000000
     5  C    6.118988   7.978509   2.482210   1.542737   0.000000
     6  C    7.573108   9.263225   3.876025   2.579715   1.538163
     7  C    7.951107   9.649684   4.375602   3.046045   2.602281
     8  C    7.398640   8.639437   3.918511   2.606298   3.008850
     9  C    5.883954   7.226758   2.528332   1.561760   2.589699
    10  C    4.765488   9.186852   6.340369   7.465985   7.376561
    11  C    5.067229   9.386689   5.930155   6.858917   6.749544
    12  C    4.327021   8.420963   4.879287   5.788123   5.900257
    13  C    2.961127   7.070447   4.180822   5.354780   5.737901
    14  N    1.461017   4.458725   2.398609   3.938921   4.725282
    15  C    2.419676   3.635476   2.200910   3.561186   4.608415
    16  O    3.652541   4.418516   1.449763   2.439517   3.562486
    17  C    2.763995   2.191581   3.583220   4.793398   5.953983
    18  N    4.137364   1.265901   4.597564   5.537734   6.796123
    19  N    3.573853   1.311243   5.722540   6.965916   8.137028
    20  C    2.357764   2.088783   4.575116   5.919584   7.014165
    21  N    1.270243   3.480734   4.644275   6.130709   7.049373
    22  N    1.297494   5.572997   4.689593   6.193498   6.757802
    23  C    2.397337   6.789317   4.740556   6.110597   6.463017
    24  C    3.578706   7.970117   5.829191   7.143551   7.258607
    25  H    5.466104   1.071196   6.658831   7.600749   8.881841
    26  H    3.789379   6.176357   1.096333   2.176808   2.415281
    27  H    3.535159   5.860050   1.098326   2.125121   3.049196
    28  H    5.869537   6.507323   2.190000   1.091079   2.150629
    29  H    5.791343   8.255141   2.590182   2.172379   1.092581
    30  H    6.237092   7.941693   2.805493   2.178758   1.091826
    31  H    8.157181  10.128039   4.631117   3.515668   2.174699
    32  H    8.096893   9.294316   4.293420   2.872735   2.126463
    33  H    7.822005   9.977911   4.546236   3.483070   2.935812
    34  H    9.035288  10.575734   5.421776   4.021765   3.527813
    35  H    7.888755   9.153654   4.694483   3.548886   4.002707
    36  H    7.932904   8.641094   4.346140   2.913062   3.421172
    37  H    5.823634   6.611394   2.857160   2.195364   3.523188
    38  H    5.538179   7.466900   2.661151   2.197766   2.947324
    39  Br   6.410815  10.805633   8.023041   9.099977   8.808131
    40  H    6.128024  10.417098   6.659423   7.423656   7.166324
    41  H    5.017332   8.825222   4.904498   5.559331   5.666801
    42  H    2.752205   6.395493   3.573400   4.715287   5.349428
    43  H    4.086609   2.063402   6.657950   7.942988   9.090653
    44  H    1.959452   5.686707   5.639496   7.153913   7.757158
    45  H    3.848422   8.068910   6.499891   7.884032   7.995903
                    6          7          8          9         10
     6  C    0.000000
     7  C    1.535555   0.000000
     8  C    2.549266   1.545427   0.000000
     9  C    2.982704   2.593253   1.542803   0.000000
    10  C    8.484901   8.698037   8.799032   7.724721   0.000000
    11  C    7.698306   7.723268   7.845347   6.901476   1.393205
    12  C    6.864818   6.773318   6.701069   5.686383   2.414394
    13  C    6.909053   6.940584   6.649184   5.398055   2.779238
    14  N    6.188987   6.639098   6.111559   4.606485   5.212115
    15  C    6.023704   6.507891   5.813142   4.312142   6.494813
    16  O    4.905316   5.476920   4.814101   3.420978   7.159564
    17  C    7.318409   7.755429   6.903046   5.417163   7.397878
    18  N    8.050720   8.476513   7.498529   6.114654   8.823828
    19  N    9.506230   9.873568   8.934882   7.442455   8.259126
    20  C    8.421967   8.810946   7.970762   6.446473   7.110854
    21  N    8.497875   8.859615   8.157278   6.615933   5.822379
    22  N    8.178423   8.510027   8.085803   6.628648   3.699057
    23  C    7.776759   8.014217   7.753258   6.417534   2.423538
    24  C    8.530554   8.835123   8.763308   7.518946   1.393829
    25  H   10.116893  10.491151   9.425540   8.067891  10.221707
    26  H    3.940064   4.691994   4.573640   3.346134   5.798489
    27  H    4.287459   4.454070   3.885158   2.415144   5.744450
    28  H    2.931583   3.518922   2.960461   2.177655   8.416814
    29  H    2.123793   2.911733   3.461956   2.945175   6.428488
    30  H    2.170018   3.525335   3.981289   3.525953   7.652430
    31  H    1.090078   2.165061   3.490589   3.977610   8.564601
    32  H    1.087718   2.127969   2.833459   3.380940   9.416433
    33  H    2.154761   1.091499   2.159904   2.922034   8.016979
    34  H    2.171875   1.090727   2.180415   3.524203   9.686972
    35  H    3.483695   2.169032   1.084998   2.193424   9.091850
    36  H    2.854691   2.149528   1.092083   2.143056   9.725363
    37  H    3.961980   3.523639   2.174347   1.091137   8.188477
    38  H    3.424900   2.883642   2.112781   1.092001   6.883532
    39  Br   9.848767  10.146155  10.426460   9.443971   1.901093
    40  H    7.947938   7.890354   8.152420   7.378350   2.144181
    41  H    6.436118   6.133929   6.060866   5.209146   3.397461
    42  H    6.504470   6.440782   5.944101   4.620089   3.858846
    43  H   10.476798  10.827068   9.886932   8.384937   8.568306
    44  H    9.183818   9.501486   9.033087   7.561205   4.071061
    45  H    9.328414   9.736674   9.666572   8.379107   2.136000
                   11         12         13         14         15
    11  C    0.000000
    12  C    1.394080   0.000000
    13  C    2.409798   1.395169   0.000000
    14  N    5.240966   4.332726   3.122438   0.000000
    15  C    6.453881   5.454956   4.286383   1.292180   0.000000
    16  O    6.945330   5.903776   4.948057   2.287800   1.343443
    17  C    7.487872   6.503254   5.211552   2.350614   1.450602
    18  N    8.904944   7.882725   6.597698   3.768120   2.708466
    19  N    8.569718   7.698025   6.311137   4.006006   3.550756
    20  C    7.373470   6.495463   5.117233   2.712645   2.409953
    21  N    6.199553   5.455089   4.063793   2.343498   2.759821
    22  N    4.206289   3.724546   2.449334   2.496435   3.644500
    23  C    2.804378   2.434908   1.402618   3.064662   4.337555
    24  C    2.414689   2.789931   2.406199   4.268832   5.557629
    25  H   10.436086   9.464520   8.112014   5.527874   4.665498
    26  H    5.507819   4.660869   4.045869   2.423993   2.583499
    27  H    5.208231   4.029226   3.351389   2.292535   2.450710
    28  H    7.883513   6.810772   6.271591   4.426324   3.748379
    29  H    5.760763   5.002944   5.000242   4.514076   4.700408
    30  H    7.195998   6.465301   6.210064   4.843128   4.664115
    31  H    7.784310   7.116935   7.312049   6.818018   6.780689
    32  H    8.687041   7.818039   7.746074   6.662047   6.299411
    33  H    6.955220   6.071379   6.426767   6.612754   6.688046
    34  H    8.671075   7.756020   7.990365   7.714532   7.532971
    35  H    8.035818   6.855580   6.900533   6.704732   6.467352
    36  H    8.833278   7.674036   7.509597   6.595556   6.095859
    37  H    7.415566   6.117291   5.655598   4.626084   4.142962
    38  H    5.968744   4.730453   4.576682   4.400385   4.400844
    39  Br   2.861467   4.168424   4.680056   6.916379   8.196617
    40  H    1.078444   2.148649   3.389585   6.218153   7.396212
    41  H    2.154412   1.082209   2.151939   4.812061   5.786281
    42  H    3.382969   2.138645   1.079687   2.677281   3.647889
    43  H    8.981836   8.190559   6.797953   4.777905   4.484638
    44  H    4.758758   4.424894   3.223686   3.353673   4.376236
    45  H    3.383154   3.865013   3.385925   4.725020   5.973806
                   16         17         18         19         20
    16  O    0.000000
    17  C    2.440682   0.000000
    18  N    3.257394   1.434634   0.000000
    19  N    4.642198   2.201574   2.129997   0.000000
    20  C    3.640958   1.339404   2.139580   1.299752   0.000000
    21  N    4.102861   2.391093   3.516628   2.439895   1.424205
    22  N    4.782399   4.053239   5.401728   4.573636   3.484819
    23  C    5.236082   5.069020   6.474862   5.868937   4.717827
    24  C    6.403232   6.298149   7.702052   6.986734   5.882554
    25  H    5.342341   3.237133   2.086851   2.089299   3.112134
    26  H    2.073234   4.016314   5.140737   6.088761   4.877062
    27  H    2.184728   3.767638   4.890740   5.735516   4.554118
    28  H    2.443683   4.777769   5.261706   6.943455   6.027610
    29  H    3.903829   6.127418   7.146961   8.241185   7.036615
    30  H    3.598197   5.961970   6.753838   8.136257   7.041051
    31  H    5.721411   8.126540   8.926635  10.311003   9.183256
    32  H    5.059340   7.486002   8.045866   9.679478   8.680468
    33  H    5.815286   7.997167   8.858251  10.064503   8.939053
    34  H    6.451755   8.743876   9.386577  10.862614   9.832655
    35  H    5.591974   7.492026   8.077025   9.413717   8.481277
    36  H    4.976445   7.063979   7.466535   9.091563   8.224505
    37  H    3.344613   5.013260   5.541479   6.914612   6.044125
    38  H    3.782414   5.569101   6.447178   7.498243   6.428069
    39  Br   8.843248   9.074801  10.492679   9.824392   8.723105
    40  H    7.781063   8.485682   9.896590   9.625827   8.422748
    41  H    6.053702   6.888446   8.206950   8.210804   7.018583
    42  H    4.269516   4.546792   5.867840   5.752825   4.579689
    43  H    5.631140   3.195410   3.098173   1.022400   2.105842
    44  H    5.603202   4.505677   5.737147   4.539153   3.659481
    45  H    6.910913   6.560663   7.916661   7.012419   6.003293
                   21         22         23         24         25
    21  N    0.000000
    22  N    2.134046   0.000000
    23  C    3.448692   1.402230   0.000000
    24  C    4.548918   2.418678   1.395140   0.000000
    25  H    4.458595   6.578412   7.820478   8.986129   0.000000
    26  H    4.749326   4.478614   4.429304   5.329898   7.176483
    27  H    4.420942   4.243253   4.134515   5.297277   6.857366
    28  H    6.471389   6.835825   6.925470   7.995312   7.286222
    29  H    6.850443   6.239752   5.758376   6.438184   9.221838
    30  H    7.127835   6.912568   6.730826   7.451859   8.822877
    31  H    9.157844   8.650334   8.139615   8.738660  11.006549
    32  H    8.920332   8.822717   8.555164   9.366809  10.073665
    33  H    8.817672   8.224975   7.568461   8.294908  10.874159
    34  H    9.926341   9.599351   9.086024   9.881496  11.377630
    35  H    8.625327   8.509332   8.109227   9.127104   9.919503
    36  H    8.584922   8.740328   8.541080   9.600279   9.342220
    37  H    6.372061   6.677299   6.635759   7.851557   7.383769
    38  H    6.375666   6.106722   5.721703   6.781405   8.369043
    39  Br   7.395136   5.276568   4.176887   2.866237  11.822877
    40  H    7.269402   5.284665   3.882772   3.390089  11.468496
    41  H    6.116347   4.598291   3.413001   3.872107   9.853503
    42  H    3.743892   2.691067   2.155670   3.388373   7.421406
    43  H    2.836760   4.881784   6.227898   7.249540   2.452915
    44  H    2.237089   1.010939   2.071026   2.722097   6.617563
    45  H    4.637241   2.644320   2.146268   1.075216   9.044982
                   26         27         28         29         30
    26  H    0.000000
    27  H    1.765389   0.000000
    28  H    2.833574   2.958199   0.000000
    29  H    2.259639   2.877592   3.045978   0.000000
    30  H    2.463627   3.619822   2.419370   1.744803   0.000000
    31  H    4.472293   5.030005   3.910104   2.411475   2.522842
    32  H    4.446797   4.865757   2.805724   2.998939   2.413728
    33  H    4.755698   4.419240   4.197160   2.827212   3.920541
    34  H    5.737885   5.528343   4.324337   3.893295   4.321549
    35  H    5.399325   4.448491   3.945250   4.295781   5.018121
    36  H    5.060570   4.504570   2.852340   4.125320   4.212022
    37  H    3.865081   2.680916   2.459151   3.940694   4.336958
    38  H    3.348969   2.126392   3.075998   2.891296   3.952630
    39  Br   7.349465   7.523030  10.045041   7.810513   8.980189
    40  H    6.225078   5.938470   8.482773   6.125406   7.656603
    41  H    4.831167   3.978589   6.616910   4.785047   6.381050
    42  H    3.711957   2.626550   5.582886   4.765059   5.902743
    43  H    6.974683   6.608291   7.954022   9.141350   9.088140
    44  H    5.453334   5.196526   7.754214   7.249690   7.888439
    45  H    5.943025   6.077160   8.666037   7.217696   8.074865
                   31         32         33         34         35
    31  H    0.000000
    32  H    1.740122   0.000000
    33  H    2.452210   3.025006   0.000000
    34  H    2.518297   2.419457   1.746709   0.000000
    35  H    4.306124   3.813794   2.455700   2.519992   0.000000
    36  H    3.842745   2.707054   3.039480   2.437479   1.723331
    37  H    4.999885   4.180948   3.908449   4.329721   2.543064
    38  H    4.254521   4.078247   2.790449   3.868706   2.416590
    39  Br   9.762938  10.799619   9.408532  11.081145  10.735999
    40  H    7.924452   8.985183   7.021460   8.760500   8.274949
    41  H    6.703935   7.419119   5.357579   7.060684   6.091501
    42  H    7.050898   7.270227   6.030699   7.493545   6.166100
    43  H   11.263776  10.678101  10.975662  11.826833  10.329540
    44  H    9.659983   9.813803   9.211340  10.589885   9.424453
    45  H    9.519722  10.119439   9.241958  10.790937  10.081242
                   36         37         38         39         40
    36  H    0.000000
    37  H    2.432291   0.000000
    38  H    3.000580   1.741085   0.000000
    39  Br  11.367806   9.985866   8.611664   0.000000
    40  H    9.184784   7.970687   6.406713   2.961764   0.000000
    41  H    7.083893   5.673700   4.171897   5.015636   2.483377
    42  H    6.751061   4.738441   3.840396   5.759547   4.275352
    43  H   10.071238   7.850738   8.380346  10.048719  10.048880
    44  H    9.672551   7.540317   7.038526   5.455770   5.819798
    45  H   10.458866   8.680325   7.706619   2.958307   4.269570
                   41         42         43         44         45
    41  H    0.000000
    42  H    2.461285   0.000000
    43  H    8.764382   6.321812   0.000000
    44  H    5.333734   3.499736   4.631884   0.000000
    45  H    4.947176   4.285569   7.164519   2.634622   0.000000
 Stoichiometry    C18H20BrN5O
 Framework group  C1[X(C18H20BrN5O)]
 Deg. of freedom   129
 Full point group                 C1      NOp   1
 Largest Abelian subgroup         C1      NOp   1
 Largest concise Abelian subgroup C1      NOp   1
                         Standard orientation:                         
 ---------------------------------------------------------------------
 Center     Atomic      Atomic             Coordinates (Angstroms)
 Number     Number       Type             X           Y           Z
 ---------------------------------------------------------------------
      1          6           0        0.015161    2.189444    0.017578
      2          6           0       -3.665899    4.644213    0.040650
      3          6           0       -2.271987   -0.845119   -0.496020
      4          6           0       -3.240042   -2.052351   -0.429268
      5          6           0       -2.650911   -3.147753   -1.341988
      6          6           0       -3.271915   -4.537475   -1.120697
      7          6           0       -3.373031   -4.996343    0.341200
      8          6           0       -3.997527   -3.905156    1.239900
      9          6           0       -3.376340   -2.504521    1.059376
     10          6           0        4.010215   -0.399343    0.235761
     11          6           0        3.438420   -1.415638    0.998135
     12          6           0        2.153520   -1.260816    1.516325
     13          6           0        1.445579   -0.086276    1.259867
     14          7           0       -0.935178    1.140708   -0.345165
     15          6           0       -2.203783    1.354532   -0.466203
     16          8           0       -3.035172    0.351162   -0.793127
     17          6           0       -2.686640    2.705742   -0.253303
     18          7           0       -3.918444    3.441109   -0.261457
     19          7           0       -2.384766    4.827235    0.251740
     20          6           0       -1.817424    3.671967    0.070541
     21          7           0       -0.434983    3.360952    0.213675
     22          7           0        1.298009    2.115710    0.197455
     23          6           0        2.007262    0.941544    0.488222
     24          6           0        3.304253    0.779226    0.000490
     25          1           0       -4.375486    5.444124    0.104593
     26          1           0       -1.547678   -0.999487   -1.304410
     27          1           0       -1.711368   -0.865222    0.448238
     28          1           0       -4.225835   -1.782749   -0.811342
     29          1           0       -1.580326   -3.253696   -1.151309
     30          1           0       -2.743096   -2.859508   -2.391035
     31          1           0       -2.746779   -5.288845   -1.710565
     32          1           0       -4.284503   -4.497920   -1.515960
     33          1           0       -2.372683   -5.226724    0.712146
     34          1           0       -3.946839   -5.921295    0.411152
     35          1           0       -3.980419   -4.226731    2.276006
     36          1           0       -5.058253   -3.830859    0.990927
     37          1           0       -3.941704   -1.767053    1.631289
     38          1           0       -2.394877   -2.560402    1.534849
     39         35           0        5.748239   -0.632635   -0.498406
     40          1           0        3.998284   -2.315437    1.198025
     41          1           0        1.704787   -2.045514    2.111358
     42          1           0        0.446671    0.020233    1.655550
     43          1           0       -1.964793    5.738208    0.449356
     44          1           0        1.766543    2.995044    0.368465
     45          1           0        3.765442    1.561491   -0.575232
 ---------------------------------------------------------------------
 Rotational constants (GHZ):           0.1765981           0.0953591           0.0652993
 Leave Link  202 at Thu Jan 30 14:39:47 2025, MaxMem=   104857600 cpu:               0.0 elap:               0.0
 (Enter /home/pb777/GAUSSIAN/g16/l301.exe)
 Standard basis: 6-31G(d) (6D, 7F)
 Ernie: Thresh=  0.10000D-02 Tol=  0.10000D-05 Strict=F.
 There are   430 symmetry adapted cartesian basis functions of A   symmetry.
 There are   430 symmetry adapted basis functions of A   symmetry.
   430 basis functions,   835 primitive gaussians,   430 cartesian basis functions
   103 alpha electrons      103 beta electrons
       nuclear repulsion energy      2477.3558467855 Hartrees.
 IExCor=    0 DFT=F Ex=HF Corr=None ExCW=0 ScaHFX=  1.000000
 ScaDFX=  1.000000  1.000000  1.000000  1.000000 ScalE2=  1.000000  1.000000
 IRadAn=      5 IRanWt=     -1 IRanGd=            0 ICorTp=0 IEmpDi=  4
 NAtoms=   45 NActive=   45 NUniq=   45 SFac= 1.00D+00 NAtFMM=   60 NAOKFM=F Big=F
 Integral buffers will be    131072 words long.
 Raffenetti 1 integral format.
 Two-electron integral symmetry is turned on.
 Leave Link  301 at Thu Jan 30 14:39:48 2025, MaxMem=   104857600 cpu:               0.0 elap:               0.0
 (Enter /home/pb777/GAUSSIAN/g16/l302.exe)
 NPDir=0 NMtPBC=     1 NCelOv=     1 NCel=       1 NClECP=     1 NCelD=      1
         NCelK=      1 NCelE2=     1 NClLst=     1 CellRange=     0.0.
 One-electron integrals computed using PRISM.
 One-electron integral symmetry used in STVInt
 NBasis=   430 RedAO= T EigKep=  4.21D-04  NBF=   430
 NBsUse=   430 1.00D-06 EigRej= -1.00D+00 NBFU=   430
 Leave Link  302 at Thu Jan 30 14:39:48 2025, MaxMem=   104857600 cpu:               0.2 elap:               0.2
 (Enter /home/pb777/GAUSSIAN/g16/l303.exe)
 DipDrv:  MaxL=1.
 Leave Link  303 at Thu Jan 30 14:39:48 2025, MaxMem=   104857600 cpu:               0.0 elap:               0.0
 (Enter /home/pb777/GAUSSIAN/g16/l401.exe)
 ExpMin= 1.43D-01 ExpMax= 5.74D+05 ExpMxC= 5.74D+03 IAcc=3 IRadAn=         5 AccDes= 0.00D+00
 Harris functional with IExCor=  205 and IRadAn=       5 diagonalized for initial guess.
 HarFok:  IExCor=  205 AccDes= 0.00D+00 IRadAn=         5 IDoV= 1 UseB2=F ITyADJ=14
 ICtDFT=  3500011 ScaDFX=  1.000000  1.000000  1.000000  1.000000
 FoFCou: FMM=F IPFlag=           0 FMFlag=      100000 FMFlg1=           0
         NFxFlg=           0 DoJE=T BraDBF=F KetDBF=T FulRan=T
         wScrn=  0.000000 ICntrl=       500 IOpCl=  0 I1Cent=   200000004 NGrid=           0
         NMat0=    1 NMatS0=      1 NMatT0=    0 NMatD0=    1 NMtDS0=    0 NMtDT0=    0
 Petite list used in FoFCou.
 Harris En= -3610.78819949190    
 JPrj=0 DoOrth=F DoCkMO=F.
 Leave Link  401 at Thu Jan 30 14:39:55 2025, MaxMem=   104857600 cpu:               7.2 elap:               7.3
 (Enter /home/pb777/GAUSSIAN/g16/l502.exe)
 Integral symmetry usage will be decided dynamically.
 Closed shell SCF:
 Using DIIS extrapolation, IDIIS=  1040.
 NGot=   104857600 LenX=   104480495 LenY=   104295154
 Requested convergence on RMS density matrix=1.00D-08 within 128 cycles.
 Requested convergence on MAX density matrix=1.00D-06.
 Requested convergence on             energy=1.00D-06.
 No special actions if energy rises.
 Fock matrices will be formed incrementally for  20 cycles.
 Integral accuracy reduced to 1.0D-05 until final iterations.

 Cycle   1  Pass 0  IDiag  1:
 FoFJK:  IHMeth= 1 ICntrl=       0 DoSepK=F KAlg= 0 I1Cent=           0 FoldK=F
 IRaf= 700000000 NMat=       1 IRICut=       1 DoRegI=T DoRafI=F ISym2E= 0 IDoP0=0 IntGTp=1.
 FoFCou: FMM=F IPFlag=           0 FMFlag=      100000 FMFlg1=           0
         NFxFlg=           0 DoJE=F BraDBF=F KetDBF=F FulRan=T
         wScrn=  0.000000 ICntrl=         0 IOpCl=  0 I1Cent=           0 NGrid=           0
         NMat0=    1 NMatS0=      1 NMatT0=    0 NMatD0=    1 NMtDS0=    0 NMtDT0=    0
 Symmetry not used in FoFCou.
 E= -3609.26892988356    
 DIIS: error= 2.47D-01 at cycle   1 NSaved=   1.
 NSaved= 1 IEnMin= 1 EnMin= -3609.26892988356     IErMin= 1 ErrMin= 2.47D-01
 ErrMax= 2.47D-01  0.00D+00 EMaxC= 1.00D-01 BMatC= 3.19D+00 BMatP= 3.19D+00
 IDIUse=3 WtCom= 0.00D+00 WtEn= 1.00D+00
 Coeff-Com:  0.100D+01
 Coeff-En:   0.100D+01
 Coeff:      0.100D+01
 Gap=     0.461 Goal=   None    Shift=    0.000
 GapD=    0.461 DampG=2.000 DampE=0.250 DampFc=0.5000 IDamp=-1.
 Damping current iteration by 5.00D-01
 RMSDP=3.84D-03 MaxDP=2.04D-01              OVMax= 1.36D-01

 Cycle   2  Pass 0  IDiag  1:
 RMSU=  1.81D-03    CP:  9.74D-01
 E= -3609.75796678548     Delta-E=       -0.489036901919 Rises=F Damp=T
 DIIS: error= 1.23D-01 at cycle   2 NSaved=   2.
 NSaved= 2 IEnMin= 2 EnMin= -3609.75796678548     IErMin= 2 ErrMin= 1.23D-01
 ErrMax= 1.23D-01  0.00D+00 EMaxC= 1.00D-01 BMatC= 7.58D-01 BMatP= 3.19D+00
 IDIUse=3 WtCom= 0.00D+00 WtEn= 1.00D+00
 Coeff-Com: -0.833D+00 0.183D+01
 Coeff-En:   0.000D+00 0.100D+01
 Coeff:      0.000D+00 0.100D+01
 Gap=     0.418 Goal=   None    Shift=    0.000
 RMSDP=1.74D-03 MaxDP=1.03D-01 DE=-4.89D-01 OVMax= 3.35D-02

 Cycle   3  Pass 0  IDiag  1:
 RMSU=  6.84D-04    CP:  9.50D-01  1.82D+00
 E= -3610.20101429649     Delta-E=       -0.443047511004 Rises=F Damp=F
 DIIS: error= 5.12D-03 at cycle   3 NSaved=   3.
 NSaved= 3 IEnMin= 3 EnMin= -3610.20101429649     IErMin= 3 ErrMin= 5.12D-03
 ErrMax= 5.12D-03  0.00D+00 EMaxC= 1.00D-01 BMatC= 1.20D-02 BMatP= 7.58D-01
 IDIUse=3 WtCom= 9.49D-01 WtEn= 5.12D-02
 Coeff-Com:  0.323D+00-0.665D+00 0.134D+01
 Coeff-En:   0.000D+00 0.000D+00 0.100D+01
 Coeff:      0.306D+00-0.631D+00 0.132D+01
 Gap=     0.414 Goal=   None    Shift=    0.000
 RMSDP=3.49D-04 MaxDP=1.26D-02 DE=-4.43D-01 OVMax= 1.30D-02

 Cycle   4  Pass 0  IDiag  1:
 RMSU=  1.92D-04    CP:  9.50D-01  1.80D+00  1.42D+00
 E= -3610.21182448245     Delta-E=       -0.010810185968 Rises=F Damp=F
 DIIS: error= 6.85D-04 at cycle   4 NSaved=   4.
 NSaved= 4 IEnMin= 4 EnMin= -3610.21182448245     IErMin= 4 ErrMin= 6.85D-04
 ErrMax= 6.85D-04  0.00D+00 EMaxC= 1.00D-01 BMatC= 5.46D-04 BMatP= 1.20D-02
 IDIUse=3 WtCom= 9.93D-01 WtEn= 6.85D-03
 Coeff-Com:  0.745D-01-0.156D+00 0.243D+00 0.839D+00
 Coeff-En:   0.000D+00 0.000D+00 0.000D+00 0.100D+01
 Coeff:      0.740D-01-0.155D+00 0.241D+00 0.840D+00
 Gap=     0.413 Goal=   None    Shift=    0.000
 RMSDP=8.00D-05 MaxDP=2.90D-03 DE=-1.08D-02 OVMax= 6.97D-03

 Cycle   5  Pass 0  IDiag  1:
 RMSU=  6.79D-05    CP:  9.50D-01  1.80D+00  1.48D+00  9.55D-01
 E= -3610.21245026674     Delta-E=       -0.000625784291 Rises=F Damp=F
 DIIS: error= 5.37D-04 at cycle   5 NSaved=   5.
 NSaved= 5 IEnMin= 5 EnMin= -3610.21245026674     IErMin= 5 ErrMin= 5.37D-04
 ErrMax= 5.37D-04  0.00D+00 EMaxC= 1.00D-01 BMatC= 8.27D-05 BMatP= 5.46D-04
 IDIUse=3 WtCom= 9.95D-01 WtEn= 5.37D-03
 Coeff-Com: -0.184D-01 0.377D-01-0.932D-01 0.165D+00 0.909D+00
 Coeff-En:   0.000D+00 0.000D+00 0.000D+00 0.000D+00 0.100D+01
 Coeff:     -0.183D-01 0.375D-01-0.927D-01 0.164D+00 0.910D+00
 Gap=     0.414 Goal=   None    Shift=    0.000
 RMSDP=3.62D-05 MaxDP=1.95D-03 DE=-6.26D-04 OVMax= 3.50D-03

 Cycle   6  Pass 0  IDiag  1:
 RMSU=  2.34D-05    CP:  9.50D-01  1.80D+00  1.50D+00  1.08D+00  1.00D+00
 E= -3610.21259450259     Delta-E=       -0.000144235851 Rises=F Damp=F
 DIIS: error= 1.69D-04 at cycle   6 NSaved=   6.
 NSaved= 6 IEnMin= 6 EnMin= -3610.21259450259     IErMin= 6 ErrMin= 1.69D-04
 ErrMax= 1.69D-04  0.00D+00 EMaxC= 1.00D-01 BMatC= 1.20D-05 BMatP= 8.27D-05
 IDIUse=3 WtCom= 9.98D-01 WtEn= 1.69D-03
 Coeff-Com: -0.110D-01 0.227D-01-0.422D-01-0.713D-01 0.178D+00 0.924D+00
 Coeff-En:   0.000D+00 0.000D+00 0.000D+00 0.000D+00 0.000D+00 0.100D+01
 Coeff:     -0.109D-01 0.227D-01-0.421D-01-0.712D-01 0.177D+00 0.924D+00
 Gap=     0.414 Goal=   None    Shift=    0.000
 RMSDP=1.50D-05 MaxDP=5.99D-04 DE=-1.44D-04 OVMax= 1.33D-03

 Cycle   7  Pass 0  IDiag  1:
 RMSU=  8.35D-06    CP:  9.50D-01  1.80D+00  1.51D+00  1.11D+00  1.16D+00
                    CP:  1.08D+00
 E= -3610.21262088494     Delta-E=       -0.000026382347 Rises=F Damp=F
 DIIS: error= 8.10D-05 at cycle   7 NSaved=   7.
 NSaved= 7 IEnMin= 7 EnMin= -3610.21262088494     IErMin= 7 ErrMin= 8.10D-05
 ErrMax= 8.10D-05  0.00D+00 EMaxC= 1.00D-01 BMatC= 1.80D-06 BMatP= 1.20D-05
 IDIUse=1 WtCom= 1.00D+00 WtEn= 0.00D+00
 Coeff-Com:  0.169D-02-0.342D-02 0.103D-01-0.425D-01-0.118D+00 0.108D+00
 Coeff-Com:  0.104D+01
 Coeff:      0.169D-02-0.342D-02 0.103D-01-0.425D-01-0.118D+00 0.108D+00
 Coeff:      0.104D+01
 Gap=     0.414 Goal=   None    Shift=    0.000
 RMSDP=7.29D-06 MaxDP=3.11D-04 DE=-2.64D-05 OVMax= 8.14D-04

 Initial convergence to 1.0D-05 achieved.  Increase integral accuracy.
 Cycle   8  Pass 1  IDiag  1:
 E= -3610.21262108086     Delta-E=       -0.000000195917 Rises=F Damp=F
 DIIS: error= 5.84D-05 at cycle   1 NSaved=   1.
 NSaved= 1 IEnMin= 1 EnMin= -3610.21262108086     IErMin= 1 ErrMin= 5.84D-05
 ErrMax= 5.84D-05  0.00D+00 EMaxC= 1.00D-01 BMatC= 1.46D-06 BMatP= 1.46D-06
 IDIUse=1 WtCom= 1.00D+00 WtEn= 0.00D+00
 Coeff-Com:  0.100D+01
 Coeff:      0.100D+01
 Gap=     0.414 Goal=   None    Shift=    0.000
 RMSDP=7.29D-06 MaxDP=3.11D-04 DE=-1.96D-07 OVMax= 3.00D-04

 Cycle   9  Pass 1  IDiag  1:
 RMSU=  2.58D-05    CP:  1.00D+00
 E= -3610.21262267846     Delta-E=       -0.000001597597 Rises=F Damp=F
 DIIS: error= 1.32D-05 at cycle   2 NSaved=   2.
 NSaved= 2 IEnMin= 2 EnMin= -3610.21262267846     IErMin= 2 ErrMin= 1.32D-05
 ErrMax= 1.32D-05  0.00D+00 EMaxC= 1.00D-01 BMatC= 1.18D-07 BMatP= 1.46D-06
 IDIUse=1 WtCom= 1.00D+00 WtEn= 0.00D+00
 Coeff-Com:  0.151D-01 0.985D+00
 Coeff:      0.151D-01 0.985D+00
 Gap=     0.414 Goal=   None    Shift=    0.000
 RMSDP=1.84D-06 MaxDP=8.12D-05 DE=-1.60D-06 OVMax= 1.81D-04

 Cycle  10  Pass 1  IDiag  1:
 RMSU=  1.40D-06    CP:  1.00D+00  1.05D+00
 E= -3610.21262296768     Delta-E=       -0.000000289221 Rises=F Damp=F
 DIIS: error= 1.09D-05 at cycle   3 NSaved=   3.
 NSaved= 3 IEnMin= 3 EnMin= -3610.21262296768     IErMin= 3 ErrMin= 1.09D-05
 ErrMax= 1.09D-05  0.00D+00 EMaxC= 1.00D-01 BMatC= 5.31D-08 BMatP= 1.18D-07
 IDIUse=1 WtCom= 1.00D+00 WtEn= 0.00D+00
 Coeff-Com: -0.517D-01 0.295D+00 0.757D+00
 Coeff:     -0.517D-01 0.295D+00 0.757D+00
 Gap=     0.414 Goal=   None    Shift=    0.000
 RMSDP=8.06D-07 MaxDP=3.87D-05 DE=-2.89D-07 OVMax= 1.12D-04

 Cycle  11  Pass 1  IDiag  1:
 RMSU=  7.39D-07    CP:  1.00D+00  1.05D+00  1.18D+00
 E= -3610.21262308807     Delta-E=       -0.000000120393 Rises=F Damp=F
 DIIS: error= 5.87D-06 at cycle   4 NSaved=   4.
 NSaved= 4 IEnMin= 4 EnMin= -3610.21262308807     IErMin= 4 ErrMin= 5.87D-06
 ErrMax= 5.87D-06  0.00D+00 EMaxC= 1.00D-01 BMatC= 1.50D-08 BMatP= 5.31D-08
 IDIUse=1 WtCom= 1.00D+00 WtEn= 0.00D+00
 Coeff-Com:  0.179D-01-0.560D+00-0.311D+00 0.185D+01
 Coeff:      0.179D-01-0.560D+00-0.311D+00 0.185D+01
 Gap=     0.414 Goal=   None    Shift=    0.000
 RMSDP=1.26D-06 MaxDP=6.38D-05 DE=-1.20D-07 OVMax= 2.08D-04

 Cycle  12  Pass 1  IDiag  1:
 RMSU=  3.36D-07    CP:  1.00D+00  1.06D+00  1.90D+00  1.92D+00
 E= -3610.21262318307     Delta-E=       -0.000000095002 Rises=F Damp=F
 DIIS: error= 1.88D-06 at cycle   5 NSaved=   5.
 NSaved= 5 IEnMin= 5 EnMin= -3610.21262318307     IErMin= 5 ErrMin= 1.88D-06
 ErrMax= 1.88D-06  0.00D+00 EMaxC= 1.00D-01 BMatC= 1.16D-09 BMatP= 1.50D-08
 IDIUse=1 WtCom= 1.00D+00 WtEn= 0.00D+00
 Coeff-Com:  0.906D-02-0.183D+00-0.159D+00 0.518D+00 0.815D+00
 Coeff:      0.906D-02-0.183D+00-0.159D+00 0.518D+00 0.815D+00
 Gap=     0.414 Goal=   None    Shift=    0.000
 RMSDP=2.13D-07 MaxDP=8.00D-06 DE=-9.50D-08 OVMax= 3.46D-05

 Cycle  13  Pass 1  IDiag  1:
 RMSU=  9.31D-08    CP:  1.00D+00  1.06D+00  1.99D+00  2.10D+00  1.15D+00
 E= -3610.21262318669     Delta-E=       -0.000000003613 Rises=F Damp=F
 DIIS: error= 4.79D-07 at cycle   6 NSaved=   6.
 NSaved= 6 IEnMin= 6 EnMin= -3610.21262318669     IErMin= 6 ErrMin= 4.79D-07
 ErrMax= 4.79D-07  0.00D+00 EMaxC= 1.00D-01 BMatC= 1.79D-10 BMatP= 1.16D-09
 IDIUse=1 WtCom= 1.00D+00 WtEn= 0.00D+00
 Coeff-Com: -0.465D-02 0.136D+00 0.742D-01-0.425D+00-0.394D-01 0.126D+01
 Coeff:     -0.465D-02 0.136D+00 0.742D-01-0.425D+00-0.394D-01 0.126D+01
 Gap=     0.414 Goal=   None    Shift=    0.000
 RMSDP=9.47D-08 MaxDP=3.18D-06 DE=-3.61D-09 OVMax= 1.35D-05

 Cycle  14  Pass 1  IDiag  1:
 RMSU=  5.17D-08    CP:  1.00D+00  1.06D+00  2.01D+00  2.14D+00  1.32D+00
                    CP:  1.32D+00
 E= -3610.21262318736     Delta-E=       -0.000000000672 Rises=F Damp=F
 DIIS: error= 2.93D-07 at cycle   7 NSaved=   7.
 NSaved= 7 IEnMin= 7 EnMin= -3610.21262318736     IErMin= 7 ErrMin= 2.93D-07
 ErrMax= 2.93D-07  0.00D+00 EMaxC= 1.00D-01 BMatC= 2.10D-11 BMatP= 1.79D-10
 IDIUse=1 WtCom= 1.00D+00 WtEn= 0.00D+00
 Coeff-Com: -0.194D-02 0.456D-01 0.304D-01-0.133D+00-0.975D-01 0.157D+00
 Coeff-Com:  0.999D+00
 Coeff:     -0.194D-02 0.456D-01 0.304D-01-0.133D+00-0.975D-01 0.157D+00
 Coeff:      0.999D+00
 Gap=     0.414 Goal=   None    Shift=    0.000
 RMSDP=2.89D-08 MaxDP=1.22D-06 DE=-6.72D-10 OVMax= 3.76D-06

 Cycle  15  Pass 1  IDiag  1:
 RMSU=  1.38D-08    CP:  1.00D+00  1.06D+00  2.01D+00  2.15D+00  1.35D+00
                    CP:  1.47D+00  1.33D+00
 E= -3610.21262318746     Delta-E=       -0.000000000103 Rises=F Damp=F
 DIIS: error= 9.72D-08 at cycle   8 NSaved=   8.
 NSaved= 8 IEnMin= 8 EnMin= -3610.21262318746     IErMin= 8 ErrMin= 9.72D-08
 ErrMax= 9.72D-08  0.00D+00 EMaxC= 1.00D-01 BMatC= 3.62D-12 BMatP= 2.10D-11
 IDIUse=1 WtCom= 1.00D+00 WtEn= 0.00D+00
 Coeff-Com:  0.577D-03-0.180D-01-0.101D-01 0.569D-01 0.346D-02-0.215D+00
 Coeff-Com:  0.114D+00 0.107D+01
 Coeff:      0.577D-03-0.180D-01-0.101D-01 0.569D-01 0.346D-02-0.215D+00
 Coeff:      0.114D+00 0.107D+01
 Gap=     0.414 Goal=   None    Shift=    0.000
 RMSDP=1.31D-08 MaxDP=4.61D-07 DE=-1.03D-10 OVMax= 1.71D-06

 Cycle  16  Pass 1  IDiag  1:
 RMSU=  5.91D-09    CP:  1.00D+00  1.06D+00  2.01D+00  2.15D+00  1.36D+00
                    CP:  1.50D+00  1.52D+00  1.18D+00
 E= -3610.21262318745     Delta-E=        0.000000000010 Rises=F Damp=F
 DIIS: error= 3.78D-08 at cycle   9 NSaved=   9.
 NSaved= 9 IEnMin= 8 EnMin= -3610.21262318746     IErMin= 9 ErrMin= 3.78D-08
 ErrMax= 3.78D-08  0.00D+00 EMaxC= 1.00D-01 BMatC= 4.14D-13 BMatP= 3.62D-12
 IDIUse=1 WtCom= 1.00D+00 WtEn= 0.00D+00
 Coeff-Com:  0.198D-03-0.471D-02-0.312D-02 0.140D-01 0.121D-01-0.222D-01
 Coeff-Com: -0.101D+00 0.448D-01 0.106D+01
 Coeff:      0.198D-03-0.471D-02-0.312D-02 0.140D-01 0.121D-01-0.222D-01
 Coeff:     -0.101D+00 0.448D-01 0.106D+01
 Gap=     0.414 Goal=   None    Shift=    0.000
 RMSDP=3.66D-09 MaxDP=1.57D-07 DE= 1.00D-11 OVMax= 4.68D-07

 SCF Done:  E(RHF) =  -3610.21262319     A.U. after   16 cycles
            NFock= 16  Conv=0.37D-08     -V/T= 2.0036
 KE= 3.597161690452D+03 PE=-1.352003173300D+04 EE= 3.835301572577D+03
 Leave Link  502 at Thu Jan 30 14:41:43 2025, MaxMem=   104857600 cpu:             107.9 elap:             108.4
 (Enter /home/pb777/GAUSSIAN/g16/l801.exe)
 Range of M.O.s used for correlation:     1   430
 NBasis=   430 NAE=   103 NBE=   103 NFC=     0 NFV=     0
 NROrb=    430 NOA=   103 NOB=   103 NVA=   327 NVB=   327

 **** Warning!!: The largest alpha MO coefficient is  0.19679714D+02

 Leave Link  801 at Thu Jan 30 14:41:43 2025, MaxMem=   104857600 cpu:               0.0 elap:               0.0
 (Enter /home/pb777/GAUSSIAN/g16/l1101.exe)
 Using compressed storage, NAtomX=    45.
 Will process     46 centers per pass.
 Leave Link 1101 at Thu Jan 30 14:41:44 2025, MaxMem=   104857600 cpu:               0.4 elap:               0.4
 (Enter /home/pb777/GAUSSIAN/g16/l1102.exe)
 Symmetrizing basis deriv contribution to polar:
 IMax=3 JMax=2 DiffMx= 0.00D+00
 Leave Link 1102 at Thu Jan 30 14:41:44 2025, MaxMem=   104857600 cpu:               0.1 elap:               0.0
 (Enter /home/pb777/GAUSSIAN/g16/l1110.exe)
 Forming Gx(P) for the SCF density, NAtomX=    45.
 Integral derivatives from FoFJK, PRISM(SPDF).
 Do as many integral derivatives as possible in FoFJK.
 G2DrvN: MDV=     104854224.
 G2DrvN: will do    46 centers at a time, making    1 passes.
 Calling FoFCou, ICntrl=  3107 FMM=F I1Cent=   0 AccDes= 0.00D+00.
 FoFJK:  IHMeth= 1 ICntrl=    3107 DoSepK=F KAlg= 0 I1Cent=           0 FoldK=F
 IRaf=         0 NMat=       1 IRICut=       1 DoRegI=T DoRafI=F ISym2E= 0 IDoP0=0 IntGTp=1.
 FoFCou: FMM=F IPFlag=           0 FMFlag=      100000 FMFlg1=           0
         NFxFlg=           0 DoJE=F BraDBF=F KetDBF=F FulRan=T
         wScrn=  0.000000 ICntrl=      3107 IOpCl=  0 I1Cent=           0 NGrid=           0
         NMat0=    1 NMatS0=      1 NMatT0=    0 NMatD0=    1 NMtDS0=    0 NMtDT0=    0
 Symmetry not used in FoFCou.
 End of G2Drv F.D. properties file   721 does not exist.
 End of G2Drv F.D. properties file   722 does not exist.
 End of G2Drv F.D. properties file   788 does not exist.
 Leave Link 1110 at Thu Jan 30 14:43:19 2025, MaxMem=   104857600 cpu:              94.5 elap:              95.0
 (Enter /home/pb777/GAUSSIAN/g16/l1002.exe)
 Minotr:  Closed shell wavefunction.
          IDoAtm=111111111111111111111111111111111111111111111
          Direct CPHF calculation.
          Differentiating once with respect to nuclear coordinates.
          Requested convergence is 1.0D-08 RMS, and 1.0D-07 maximum.
          Secondary convergence is 1.0D-12 RMS, and 1.0D-12 maximum.
          NewPWx=T KeepS1=F KeepF1=F KeepIn=T MapXYZ=F SortEE=F KeepMc=T.
 Two-electron integrals replicated using symmetry.
          MDV=     104857600 using IRadAn=       1.
          Solving linear equations simultaneously, MaxMat=     384.
 FoF2E skips out because all densities are zero.
 FoFJK:  IHMeth= 1 ICntrl=       0 DoSepK=F KAlg= 0 I1Cent=           0 FoldK=F
 IRaf= 660000000 NMat=     135 IRICut=     337 DoRegI=T DoRafI=T ISym2E= 2 IDoP0=0 IntGTp=1.
 FoFCou: FMM=F IPFlag=           0 FMFlag=      100000 FMFlg1=           0
         NFxFlg=           0 DoJE=F BraDBF=F KetDBF=F FulRan=T
         wScrn=  0.000000 ICntrl=         0 IOpCl=  0 I1Cent=           0 NGrid=           0
         NMat0=  135 NMatS0=    135 NMatT0=    0 NMatD0=  135 NMtDS0=    0 NMtDT0=    0
 Integrals replicated using symmetry in FoFCou.
 Raff kept on since  60.58% of shell-pairs survive, threshold=   0.20 IRatSp=61.
          There are   138 degrees of freedom in the 1st order CPHF.  IDoFFX=6 NUNeed=     0.
    132 vectors produced by pass  0 Test12= 3.37D-14 1.00D-09 XBig12= 1.04D-01 9.50D-02.
 AX will form   132 AO Fock derivatives at one time.
    132 vectors produced by pass  1 Test12= 3.37D-14 1.00D-09 XBig12= 1.34D-02 2.73D-02.
    132 vectors produced by pass  2 Test12= 3.37D-14 1.00D-09 XBig12= 3.73D-04 3.07D-03.
    132 vectors produced by pass  3 Test12= 3.37D-14 1.00D-09 XBig12= 5.76D-06 2.74D-04.
    132 vectors produced by pass  4 Test12= 3.37D-14 1.00D-09 XBig12= 4.63D-08 1.62D-05.
    132 vectors produced by pass  5 Test12= 3.37D-14 1.00D-09 XBig12= 3.71D-10 1.52D-06.
    120 vectors produced by pass  6 Test12= 3.37D-14 1.00D-09 XBig12= 2.41D-12 1.11D-07.
     52 vectors produced by pass  7 Test12= 3.37D-14 1.00D-09 XBig12= 1.66D-14 7.10D-09.
 InvSVY:  IOpt=1 It=  1 EMax= 4.72D-16
 Solved reduced A of dimension   964 with   138 vectors.
 End of Minotr F.D. properties file   721 does not exist.
 End of Minotr F.D. properties file   722 does not exist.
 End of Minotr F.D. properties file   788 does not exist.
 Leave Link 1002 at Thu Jan 30 15:07:36 2025, MaxMem=   104857600 cpu:            1449.0 elap:            1456.7
 (Enter /home/pb777/GAUSSIAN/g16/l601.exe)
 Copying SCF densities to generalized density rwf, IOpCl= 0 IROHF=0.

 **********************************************************************

            Population analysis using the SCF density.

 **********************************************************************

 Orbital symmetries:
       Occupied  (A) (A) (A) (A) (A) (A) (A) (A) (A) (A) (A) (A)
                 (A) (A) (A) (A) (A) (A) (A) (A) (A) (A) (A) (A)
                 (A) (A) (A) (A) (A) (A) (A) (A) (A) (A) (A) (A)
                 (A) (A) (A) (A) (A) (A) (A) (A) (A) (A) (A) (A)
                 (A) (A) (A) (A) (A) (A) (A) (A) (A) (A) (A) (A)
                 (A) (A) (A) (A) (A) (A) (A) (A) (A) (A) (A) (A)
                 (A) (A) (A) (A) (A) (A) (A) (A) (A) (A) (A) (A)
                 (A) (A) (A) (A) (A) (A) (A) (A) (A) (A) (A) (A)
                 (A) (A) (A) (A) (A) (A) (A)
       Virtual   (A) (A) (A) (A) (A) (A) (A) (A) (A) (A) (A) (A)
                 (A) (A) (A) (A) (A) (A) (A) (A) (A) (A) (A) (A)
                 (A) (A) (A) (A) (A) (A) (A) (A) (A) (A) (A) (A)
                 (A) (A) (A) (A) (A) (A) (A) (A) (A) (A) (A) (A)
                 (A) (A) (A) (A) (A) (A) (A) (A) (A) (A) (A) (A)
                 (A) (A) (A) (A) (A) (A) (A) (A) (A) (A) (A) (A)
                 (A) (A) (A) (A) (A) (A) (A) (A) (A) (A) (A) (A)
                 (A) (A) (A) (A) (A) (A) (A) (A) (A) (A) (A) (A)
                 (A) (A) (A) (A) (A) (A) (A) (A) (A) (A) (A) (A)
                 (A) (A) (A) (A) (A) (A) (A) (A) (A) (A) (A) (A)
                 (A) (A) (A) (A) (A) (A) (A) (A) (A) (A) (A) (A)
                 (A) (A) (A) (A) (A) (A) (A) (A) (A) (A) (A) (A)
                 (A) (A) (A) (A) (A) (A) (A) (A) (A) (A) (A) (A)
                 (A) (A) (A) (A) (A) (A) (A) (A) (A) (A) (A) (A)
                 (A) (A) (A) (A) (A) (A) (A) (A) (A) (A) (A) (A)
                 (A) (A) (A) (A) (A) (A) (A) (A) (A) (A) (A) (A)
                 (A) (A) (A) (A) (A) (A) (A) (A) (A) (A) (A) (A)
                 (A) (A) (A) (A) (A) (A) (A) (A) (A) (A) (A) (A)
                 (A) (A) (A) (A) (A) (A) (A) (A) (A) (A) (A) (A)
                 (A) (A) (A) (A) (A) (A) (A) (A) (A) (A) (A) (A)
                 (A) (A) (A) (A) (A) (A) (A) (A) (A) (A) (A) (A)
                 (A) (A) (A) (A) (A) (A) (A) (A) (A) (A) (A) (A)
                 (A) (A) (A) (A) (A) (A) (A) (A) (A) (A) (A) (A)
                 (A) (A) (A) (A) (A) (A) (A) (A) (A) (A) (A) (A)
                 (A) (A) (A) (A) (A) (A) (A) (A) (A) (A) (A) (A)
                 (A) (A) (A) (A) (A) (A) (A) (A) (A) (A) (A) (A)
                 (A) (A) (A) (A) (A) (A) (A) (A) (A) (A) (A) (A)
                 (A) (A) (A)
 The electronic state is 1-A.
 Alpha  occ. eigenvalues -- -490.06934 -64.48078 -58.62029 -58.61842 -58.61831
 Alpha  occ. eigenvalues --  -20.61205 -15.63256 -15.60482 -15.55768 -15.54822
 Alpha  occ. eigenvalues --  -15.53943 -11.36782 -11.35960 -11.30801 -11.30707
 Alpha  occ. eigenvalues --  -11.29887 -11.29675 -11.27494 -11.25538 -11.25444
 Alpha  occ. eigenvalues --  -11.25146 -11.24874 -11.24660 -11.22381 -11.21920
 Alpha  occ. eigenvalues --  -11.21618 -11.21572 -11.21425 -11.21196  -9.72901
 Alpha  occ. eigenvalues --   -7.47830  -7.46940  -7.46937  -3.21725  -3.21294
 Alpha  occ. eigenvalues --   -3.21292  -3.20258  -3.20258  -1.43917  -1.39719
 Alpha  occ. eigenvalues --   -1.34198  -1.23994  -1.18972  -1.17160  -1.15207
 Alpha  occ. eigenvalues --   -1.11191  -1.06862  -1.05339  -1.03054  -1.01433
 Alpha  occ. eigenvalues --   -1.00093  -0.97206  -0.93174  -0.88595  -0.87514
 Alpha  occ. eigenvalues --   -0.85156  -0.83563  -0.83217  -0.82184  -0.80332
 Alpha  occ. eigenvalues --   -0.78056  -0.76174  -0.74164  -0.71883  -0.69731
[...]
 1412 Fit      -0.008197
 1413 Fit      -0.009363
 1414 Fit      -0.009544
 1415 Fit      -0.009077
 1416 Fit      -0.008386
 1417 Fit      -0.007623
 1418 Fit      -0.006694
 1419 Fit      -0.005605
 1420 Fit      -0.004618
 1421 Fit      -0.004710
 1422 Fit      -0.004785
 1423 Fit      -0.005334
 1424 Fit      -0.005868
 1425 Fit      -0.006459
 1426 Fit      -0.007517
 1427 Fit      -0.008642
 1428 Fit      -0.009076
 1429 Fit      -0.008723
 1430 Fit      -0.007844
 1431 Fit      -0.006636
 1432 Fit      -0.005417
 1433 Fit      -0.005840
 1434 Fit      -0.006111
 1435 Fit      -0.007085
 1436 Fit      -0.008090
 1437 Fit      -0.008050
 1438 Fit      -0.006859
 1439 Fit      -0.007091
 1440 Fit       0.003251
 1441 Fit       0.009515
 1442 Fit       0.006346
 1443 Fit       0.001877
 1444 Fit       0.006834
 1445 Fit       0.006812
 1446 Fit       0.004837
 1447 Fit       0.002558
 1448 Fit       0.006691
 1449 Fit       0.012518
 1450 Fit       0.011344
 1451 Fit       0.008011
 1452 Fit       0.013068
 1453 Fit       0.012140
 1454 Fit       0.011520
 1455 Fit       0.009735
 1456 Fit       0.005552
 1457 Fit       0.008552
 1458 Fit       0.009336
 1459 Fit       0.010026
 1460 Fit       0.010311
 1461 Fit       0.010388
 1462 Fit       0.003821
 1463 Fit       0.006219
 1464 Fit       0.014973
 1465 Fit       0.028943
 1466 Fit       0.035269
 1467 Fit       0.022361
 1468 Fit       0.030818
 1469 Fit       0.035530
 1470 Fit       0.038173
 1471 Fit       0.025140
 1472 Fit       0.032766
 1473 Fit       0.035442
 1474 Fit       0.034181
 1475 Fit       0.014417
 1476 Fit       0.027878
 1477 Fit       0.029271
 1478 Fit       0.019734
 1479 Fit      -0.000828
 1480 Fit       0.016935
 1481 Fit       0.013064
 1482 Fit       0.017045
 1483 Fit       0.005444
 1484 Fit       0.019446
 1485 Fit       0.009857
 1486 Fit       0.013510
 1487 Fit       0.009745
 1488 Fit       0.018076
 1489 Fit       0.016416
 1490 Fit      -0.006900
 1491 Fit      -0.005044
 1492 Fit      -0.004179
 1493 Fit      -0.005161
 1494 Fit      -0.007266
 1495 Fit      -0.006230
 1496 Fit      -0.003265
 1497 Fit      -0.002832
 1498 Fit       0.000538
 1499 Fit       0.006566
 1500 Fit       0.010402
 1501 Fit       0.015984
 1502 Fit      -0.007172
 1503 Fit       0.007377
 1504 Fit      -0.003148
 1505 Fit       0.019429
 1506 Fit       0.009160
 1507 Fit       0.000105
 1508 Fit      -0.005693
 1509 Fit       0.004790
 1510 Fit       0.009045
 1511 Fit       0.001819
 1512 Fit       0.001104
 1513 Fit       0.000979
 1514 Fit       0.001427
 1515 Fit       0.002571
 1516 Fit       0.003149
 1517 Fit       0.000138
 1518 Fit       0.000223
 1519 Fit      -0.000086
 1520 Fit       0.000120
 1521 Fit       0.000811
 1522 Fit      -0.000629
 1523 Fit      -0.003679
 1524 Fit      -0.000828
 1525 Fit      -0.006335
 1526 Fit      -0.003479
 1527 Fit      -0.004221
 1528 Fit       0.003097
 1529 Fit      -0.004654
 1530 Fit       0.000037
 1531 Fit      -0.004743
 1532 Fit       0.002055
 1533 Fit      -0.008177
 1534 Fit      -0.012336
 1535 Fit      -0.001632
 1536 Fit       0.003398
 1537 Fit       0.000927
 1538 Fit      -0.004924
 1539 Fit      -0.002143
 1540 Fit      -0.012316
 1541 Fit      -0.009175
 1542 Fit      -0.006532
 1543 Fit      -0.007775
 1544 Fit       0.000338
 1545 Fit      -0.011730
 1546 Fit      -0.010487
 1547 Fit       0.000553
 1548 Fit      -0.008548
 1549 Fit      -0.007206
 1550 Fit      -0.011990
 1551 Fit      -0.006188
 1552 Fit      -0.005169
 1553 Fit      -0.009706
 1554 Fit      -0.005387
 1555 Fit      -0.007291
 1556 Fit      -0.012344
 1557 Fit      -0.003196
 1558 Fit      -0.005662
 1559 Fit      -0.010610
 1560 Fit      -0.005488
 1561 Fit      -0.003672
 1562 Fit      -0.028747
 1563 Fit      -0.028975
 1564 Fit      -0.013199
 1565 Fit      -0.011325
 1566 Fit      -0.004656
 1567 Fit      -0.012770
 1568 Fit      -0.007778
 1569 Fit      -0.011644
 1570 Fit      -0.007711
 1571 Fit      -0.021501
 1572 Fit      -0.017988
 1573 Fit      -0.015496
 1574 Fit      -0.017244
 1575 Fit      -0.023602
 1576 Fit      -0.025380
 1577 Fit      -0.022030
 1578 Fit      -0.013523
 1579 Fit      -0.010467
 1580 Fit      -0.010357
 1581 Fit      -0.019793
 1582 Fit      -0.026804
 1583 Fit      -0.028622
 1584 Fit      -0.005811
 1585 Fit      -0.017574
 1586 Fit      -0.025784
 1587 Fit      -0.029621
 1588 Fit      -0.014174
 1589 Fit      -0.023096
 1590 Fit      -0.027394
 1591 Fit      -0.010502
 1592 Fit      -0.019395
 1593 Fit      -0.023344
 1594 Fit      -0.024914
 1595 Fit      -0.015177
 1596 Fit      -0.018214
 1597 Fit      -0.010743
 1598 Fit       0.003773
 1599 Fit       0.010357
 1600 Fit       0.004450
 1601 Fit       0.012245
 1602 Fit       0.019335
 1603 Fit       0.004645
 1604 Fit       0.016400
 1605 Fit       0.033329
 1606 Fit       0.021795
 1607 Fit       0.021654
 1608 Fit       0.011661
 1609 Fit       0.003343
 1610 Fit       0.016557
 1611 Fit       0.007442
 1612 Fit       0.005957
 1613 Fit      -0.004227
 1614 Fit      -0.002148
 1615 Fit      -0.002424
 1616 Fit      -0.004328
 1617 Fit      -0.005049
 1618 Fit      -0.006354
 1619 Fit      -0.003762
 1620 Fit      -0.003721
 1621 Fit      -0.004503
 1622 Fit       0.003050
 1623 Fit      -0.002577
 1624 Fit       0.002251
 1625 Fit      -0.000831
 1626 Fit       0.002740
 1627 Fit      -0.001716
 1628 Fit       0.001786
 1629 Fit       0.002556
 1630 Fit      -0.002294
 1631 Fit      -0.005308
 1632 Fit      -0.002242
 1633 Fit      -0.004419
 1634 Fit      -0.006068
 1635 Fit      -0.005969
 1636 Fit      -0.003957
 1637 Fit      -0.008483
 1638 Fit      -0.006431
 1639 Fit      -0.004554
 1640 Fit      -0.003198
 1641 Fit       0.004660
 1642 Fit      -0.008982
 1643 Fit      -0.005446
 1644 Fit      -0.006535
 1645 Fit       0.004069
 1646 Fit      -0.002920
 1647 Fit      -0.014227
 1648 Fit      -0.010197
 1649 Fit      -0.009993
 1650 Fit      -0.010458
 1651 Fit      -0.014735
 1652 Fit       0.008160
 1653 Fit      -0.000141
 1654 Fit       0.015879
 1655 Fit       0.016035
 1656 Fit       0.013462
 1657 Fit       0.007644
 1658 Fit      -0.003895
 1659 Fit       0.022942
 1660 Fit       0.020696
 1661 Fit       0.017615
 1662 Fit       0.013001
 1663 Fit       0.005596
 1664 Fit       0.030194
 1665 Fit       0.024505
 1666 Fit       0.020028
 1667 Fit       0.014965
 1668 Fit       0.007894
 1669 Fit       0.029001
 1670 Fit       0.021192
 1671 Fit       0.014319
 1672 Fit       0.012128
 1673 Fit      -0.001276
 1674 Fit       0.002766
 1675 Fit       0.005792
 1676 Fit       0.007126
 1677 Fit       0.006268
 1678 Fit       0.000025
 1679 Fit       0.002422
 1680 Fit      -0.000248
 1681 Fit      -0.003810
 1682 Fit       0.004091
 1683 Fit       0.000904
 1684 Fit      -0.001762
 1685 Fit       0.007999
 1686 Fit       0.000601
 1687 Fit      -0.003249
 1688 Fit       0.005908
 1689 Fit       0.012348
 1690 Fit      -0.015405
 1691 Fit      -0.005537
 1692 Fit       0.000191
 1693 Fit      -0.018372
 1694 Fit      -0.006657
 1695 Fit      -0.000674
 1696 Fit       0.002720
 1697 Fit      -0.012581
 1698 Fit      -0.003614
 1699 Fit       0.001109
 1700 Fit       0.003789
 1701 Fit      -0.000065
 1702 Fit       0.004208
 1703 Fit       0.006279
 1704 Fit       0.005756
 1705 Fit       0.006765
 1706 Fit       0.007714
 1707 Fit       0.005449
 1708 Fit       0.006240
 1709 Fit       0.008254
 1710 Fit       0.005887
 1711 Fit       0.007402
 1712 Fit       0.008872
 1713 Fit       0.004080
 1714 Fit       0.004788
 1715 Fit       0.005529
 1716 Fit       0.010724
 1717 Fit       0.005140
 1718 Fit       0.004666
 1719 Fit       0.004681
 1720 Fit       0.005097
 1721 Fit       0.005843
 1722 Fit       0.007575
 1723 Fit       0.007942
 1724 Fit       0.005786
 1725 Fit       0.005635
 1726 Fit       0.006342
 1727 Fit       0.006784
 1728 Fit       0.001952
 1729 Fit       0.002623
 1730 Fit       0.003127
 1731 Fit       0.003273
 1732 Fit       0.001754
 1733 Fit       0.002918
 1734 Fit       0.003768
 1735 Fit       0.004159
 1736 Fit       0.004357
 1737 Fit       0.001636
 1738 Fit       0.002987
 1739 Fit       0.003991
 1740 Fit       0.004525
 1741 Fit       0.004822
 1742 Fit       0.003125
 1743 Fit       0.004172
 1744 Fit       0.004740
 1745 Fit       0.002194
 1746 Fit       0.002575
 1747 Fit       0.002184
 1748 Fit       0.001424
 1749 Fit       0.002883
 1750 Fit       0.002864
 1751 Fit       0.002502
 1752 Fit       0.001716
 1753 Fit       0.003232
 1754 Fit       0.002937
 1755 Fit       0.002300
 1756 Fit       0.003616
 1757 Fit       0.003181
 1758 Fit       0.001464
 1759 Fit       0.001104
 1760 Fit       0.000628
 1761 Fit       0.002821
 1762 Fit       0.002492
 1763 Fit       0.001166
 1764 Fit       0.002328
 1765 Fit       0.004155
 1766 Fit       0.004098
 1767 Fit       0.002749
 1768 Fit       0.003682
 1769 Fit       0.006050
 1770 Fit       0.004043
 1771 Fit       0.005084
 1772 Fit       0.000759
 1773 Fit       0.000534
 1774 Fit       0.001401
 1775 Fit       0.001724
 1776 Fit       0.000758
 1777 Fit       0.000921
 1778 Fit       0.002066
 1779 Fit       0.002416
 1780 Fit       0.001977
 1781 Fit       0.000938
 1782 Fit       0.001569
 1783 Fit       0.002299
 1784 Fit       0.002461
 1785 Fit       0.002186
 1786 Fit       0.001626
 1787 Fit       0.001913
 1788 Fit       0.002101
 1789 Fit       0.001955
 1790 Fit       0.000938
 1791 Fit       0.001104
 1792 Fit       0.000699
 1793 Fit       0.000207
 1794 Fit       0.000172
 1795 Fit       0.000583
 1796 Fit       0.000815
 1797 Fit       0.001090
 1798 Fit       0.000288
 1799 Fit      -0.000630
 1800 Fit      -0.001262
 1801 Fit      -0.001551
 1802 Fit      -0.001450
 1803 Fit      -0.000828
 1804 Fit      -0.003447
 1805 Fit      -0.003971
 1806 Fit      -0.004044
 1807 Fit      -0.002098
 1808 Fit      -0.000620
 1809 Fit      -0.004982
 1810 Fit      -0.002386
 1811 Fit      -0.000435
 1812 Fit       0.000824
 1813 Fit      -0.006315
 1814 Fit      -0.002492
 1815 Fit       0.000084
 1816 Fit       0.001731
 1817 Fit      -0.006152
 1818 Fit      -0.001210
 1819 Fit       0.001852
 1820 Fit      -0.007796
 1821 Fit      -0.008939
 1822 Fit      -0.008166
 1823 Fit      -0.010667
 1824 Fit      -0.015566
 1825 Fit      -0.018271
 1826 Fit      -0.015648
 1827 Fit      -0.010946
 1828 Fit      -0.018409
 1829 Fit       0.001388
 1830 Fit      -0.000757
 1831 Fit       0.002373
 1832 Fit       0.000079
 1833 Fit      -0.002849
 1834 Fit       0.004003
 1835 Fit       0.003499
 1836 Fit       0.000964
 1837 Fit      -0.002436
 1838 Fit       0.005398
 1839 Fit      -0.002138
 1840 Fit      -0.011045
 1841 Fit      -0.008954
 1842 Fit      -0.009761
 1843 Fit      -0.012356
 1844 Fit      -0.008843
 1845 Fit      -0.008089
 1846 Fit      -0.008330
 1847 Fit      -0.008422
 1848 Fit      -0.009172
 1849 Fit      -0.012224
 1850 Fit      -0.006008
 1851 Fit      -0.006419
 1852 Fit      -0.007439
 1853 Fit      -0.007722
 1854 Fit      -0.007843
 1855 Fit      -0.007604
 1856 Fit      -0.007043
 1857 Fit      -0.006440
 1858 Fit      -0.006864
 1859 Fit      -0.001302
 1860 Fit      -0.004156
 1861 Fit      -0.006089
 1862 Fit      -0.007192
 1863 Fit      -0.007403
 1864 Fit      -0.007467
 1865 Fit      -0.007238
 1866 Fit      -0.006599
 1867 Fit      -0.005377
 1868 Fit      -0.003396
 1869 Fit      -0.000524
 1870 Fit      -0.002140
 1871 Fit      -0.004804
 1872 Fit      -0.006281
 1873 Fit      -0.007051
 1874 Fit      -0.006912
 1875 Fit      -0.006943
 1876 Fit      -0.006805
 1877 Fit      -0.006380
 1878 Fit      -0.005462
 1879 Fit      -0.003742
 1880 Fit      -0.000687
 1881 Fit       0.004986
 1882 Fit       0.002828
 1883 Fit      -0.001406
 1884 Fit      -0.004021
 1885 Fit      -0.005525
 1886 Fit      -0.006333
 1887 Fit      -0.006735
 1888 Fit      -0.006214
 1889 Fit      -0.006218
 1890 Fit      -0.006148
 1891 Fit      -0.005882
 1892 Fit      -0.005219
 1893 Fit      -0.003860
 1894 Fit      -0.001339
 1895 Fit       0.003244
 1896 Fit       0.002091
 1897 Fit      -0.000968
 1898 Fit      -0.003324
 1899 Fit      -0.004814
 1900 Fit      -0.005633
 1901 Fit      -0.006017
 1902 Fit      -0.006165
 1903 Fit      -0.005399
 1904 Fit      -0.005384
 1905 Fit      -0.005373
 1906 Fit      -0.005251
 1907 Fit      -0.004828
 1908 Fit      -0.003845
 1909 Fit      -0.001951
 1910 Fit       0.001367
 1911 Fit       0.006891
 1912 Fit      -0.015070
 1913 Fit      -0.013099
 1914 Fit      -0.009087
 1915 Fit      -0.004597
 1916 Fit      -0.001579
 1917 Fit      -0.000880
 1918 Fit      -0.001849
 1919 Fit      -0.003276
 1920 Fit      -0.004441
 1921 Fit      -0.005148
 1922 Fit      -0.005457
 1923 Fit      -0.005510
 1924 Fit      -0.005455
 1925 Fit      -0.004630
 1926 Fit      -0.004599
 1927 Fit      -0.004636
 1928 Fit      -0.004613
 1929 Fit      -0.004331
 1930 Fit      -0.003539
 1931 Fit      -0.001963
 1932 Fit       0.000643
 1933 Fit       0.004245
 1934 Fit       0.007719
 1935 Fit       0.007803
 1936 Fit       0.002146
 1937 Fit      -0.005084
 1938 Fit      -0.009460
 1939 Fit      -0.010985
 1940 Fit      -0.010713
 1941 Fit      -0.009183
 1942 Fit      -0.006979
 1943 Fit      -0.005036
 1944 Fit      -0.004055
 1945 Fit      -0.004053
 1946 Fit      -0.004533
 1947 Fit      -0.005003
 1948 Fit      -0.005227
 1949 Fit      -0.005190
 1950 Fit      -0.004996
 1951 Fit      -0.004775
 1952 Fit      -0.004075
 1953 Fit      -0.004031
 1954 Fit      -0.004109
 1955 Fit      -0.004165
 1956 Fit      -0.003992
 1957 Fit      -0.003371
 1958 Fit      -0.002160
 1959 Fit      -0.000461
 1960 Fit       0.001068
 1961 Fit       0.001100
 1962 Fit      -0.001242
 1963 Fit      -0.004781
 1964 Fit      -0.007559
 1965 Fit      -0.008872
 1966 Fit      -0.008959
 1967 Fit      -0.008222
 1968 Fit      -0.007131
 1969 Fit      -0.006193
 1970 Fit      -0.005692
 1971 Fit      -0.005553
 1972 Fit      -0.005515
 1973 Fit      -0.005367
 1974 Fit      -0.005058
 1975 Fit      -0.004660
 1976 Fit      -0.004297
 1977 Fit      -0.003860
 1978 Fit      -0.003807
 1979 Fit      -0.003928
 1980 Fit      -0.004029
 1981 Fit      -0.003879
 1982 Fit      -0.003352
 1983 Fit      -0.002622
 1984 Fit      -0.002312
 1985 Fit      -0.003148
 1986 Fit      -0.005015
 1987 Fit      -0.006883
 1988 Fit      -0.007961
 1989 Fit      -0.008163
 1990 Fit      -0.007769
 1991 Fit      -0.007161
 1992 Fit      -0.006626
 1993 Fit      -0.006211
 1994 Fit      -0.005791
 1995 Fit      -0.005270
 1996 Fit      -0.004684
 1997 Fit      -0.004169
 1998 Fit      -0.004028
 1999 Fit      -0.003969
 2000 Fit      -0.004124
 2001 Fit      -0.004270
 2002 Fit      -0.004251
 2003 Fit      -0.004196
 2004 Fit      -0.004541
 2005 Fit      -0.005531
 2006 Fit      -0.006749
 2007 Fit      -0.007564
 2008 Fit      -0.007758
 2009 Fit      -0.007487
 2010 Fit      -0.007003
 2011 Fit      -0.006430
 2012 Fit      -0.005768
 2013 Fit      -0.005048
 2014 Fit      -0.004411
 2015 Fit      -0.004531
 2016 Fit      -0.004480
 2017 Fit      -0.004702
 2018 Fit      -0.004987
 2019 Fit      -0.005424
 2020 Fit      -0.006194
 2021 Fit      -0.006997
 2022 Fit      -0.007336
 2023 Fit      -0.007124
 2024 Fit      -0.006544
 2025 Fit      -0.005769
 2026 Fit      -0.005006
 2027 Fit      -0.005239
 2028 Fit      -0.005301
 2029 Fit      -0.005882
 2030 Fit      -0.006595
 2031 Fit      -0.006629
 2032 Fit      -0.005900
 2033 Fit      -0.005980
 2034 Fit       0.008381
 2035 Fit       0.004663
 2036 Fit       0.007156
 2037 Fit       0.005681
 2038 Fit       0.003842
 2039 Fit       0.003716
 2040 Fit       0.005903
 2041 Fit       0.011153
 2042 Fit       0.009631
 2043 Fit       0.006560
 2044 Fit       0.010638
 2045 Fit       0.009706
 2046 Fit       0.007839
 2047 Fit       0.004077
 2048 Fit       0.009958
 2049 Fit       0.009469
 2050 Fit       0.009322
 2051 Fit       0.008866
 2052 Fit       0.007778
 2053 Fit       0.005092
 2054 Fit       0.006305
 2055 Fit       0.007171
 2056 Fit       0.008045
 2057 Fit       0.016417
 2058 Fit       0.023951
 2059 Fit       0.028768
 2060 Fit       0.032303
 2061 Fit       0.017672
 2062 Fit       0.025466
 2063 Fit       0.029657
 2064 Fit       0.031725
 2065 Fit       0.032161
 2066 Fit       0.020114
 2067 Fit       0.026752
 2068 Fit       0.029049
 2069 Fit       0.027848
 2070 Fit       0.011256
 2071 Fit       0.022164
 2072 Fit       0.023597
 2073 Fit       0.015702
 2074 Fit       0.008984
 2075 Fit       0.007286
 2076 Fit       0.013530
 2077 Fit       0.006790
 2078 Fit       0.014363
 2079 Fit       0.006456
 2080 Fit       0.015039
 2081 Fit       0.008004
 2082 Fit       0.009982
 2083 Fit       0.013120
 2084 Fit       0.012147
 -----------------------------------------------------------------
 Leave Link  602 at Thu Jan 30 17:15:05 2025, MaxMem=   104857600 cpu:               0.3 elap:               0.3
 (Enter /home/pb777/GAUSSIAN/g16/l9999.exe)

 Test job not archived.
 1\1\GINC-BUMBU\SP\RHF\6-31G(d)\C18H20Br1N5O1\PB777\30-Jan-2025\0\\#P H
 F/6-31G* GEOM(AllCheck) Guess(Read) NoSymm Pop=mk IOp(6/33=2) GFInput 
 GFPrint\\Gaussian Calculation\\0,1\C,0,1.5850137145,29.0955482015,6.86
 98371558\C,0,-1.5080460262,31.7527091049,8.3789174466\C,0,-0.197711381
 7,26.3424842224,9.1901036601\C,0,-1.0674953175,25.5536088991,10.149745
 3179\C,0,-0.6333074603,24.0849577517,10.1649494772\C,0,-1.4828308867,2
 3.2578426483,11.128982518\C,0,-1.464665757,23.848093659,12.5378626557\
 C,0,-1.8951952664,25.3136098905,12.5271681305\C,0,-1.0438597536,26.138
 7091993,11.5641213166\C,0,5.2239156913,26.3868618094,4.9456629941\C,0,
 4.9078373635,25.1962094953,5.5890547211\C,0,3.8102988983,25.195343661,
 6.4435779868\C,0,3.0433924119,26.3344080166,6.6603347889\N,0,0.9784684
 51,28.1813020974,7.6474628686\C,0,-0.0863123772,28.5493960585,8.348660
 4433\O,0,-0.712396612,27.6761426231,9.124903452\C,0,-0.5623722737,29.8
 67703303,8.2752282849\N,0,-1.6096135423,30.5471161008,8.8612965301\N,0
 ,-0.4533128515,31.9128226591,7.5062915681\C,0,0.1750893836,30.70128440
 71,7.4240298081\N,0,1.2437645343,30.3792608987,6.7033366285\N,0,2.6876
 693702,28.7268801683,6.1382917501\C,0,3.3762235617,27.5267124053,6.003
 1780032\C,0,4.482312581,27.5402480991,5.1378633153\H,0,-2.1693034156,3
 2.5761658105,8.6169170374\H,0,-0.2089994428,25.9038760266,8.1848572274
 \H,0,0.8446735404,26.3748396143,9.5324662291\H,0,-2.101393489,25.60265
 97304,9.774382396\H,0,0.4223919808,24.0263413562,10.4724730717\H,0,-0.
 6887958209,23.6625831686,9.152616272\H,0,-1.1296480878,22.219363807,11
 .1436655003\H,0,-2.5190758925,23.2306477759,10.7615625674\H,0,-0.44621
 93434,23.7737152252,12.9472329701\H,0,-2.1120926572,23.2631260379,13.2
 028825204\H,0,-1.8365139691,25.7367895312,13.5374797621\H,0,-2.9502037
 775,25.3791548593,12.2230696917\H,0,-1.384691981,27.1794897642,11.5397
 717258\H,0,-0.002042632,26.1539423872,11.9215714914\Br,0,6.7079526211,
 26.4431603859,3.771728248\H,0,5.5016358441,24.3043424821,5.4245510598\
 H,0,3.5418851055,24.2768829979,6.9590219876\H,0,2.1932626995,26.318244
 0861,7.3272670719\H,0,-0.1832900158,32.7515624878,7.0162308798\H,0,3.0
 457986366,29.5030466686,5.599690568\H,0,4.7608036413,28.4518104176,4.6
 167009007\\Version=ES64L-G16RevA.03\HF=-3610.313392\RMSD=6.111e-09\Dip
 ole=-0.5955522,0.7569892,0.2281443\Quadrupole=-43.5878996,72.6832662,-
 29.0953666,-31.1119893,-1.8651837,15.0702846\PG=C01 [X(C18H20Br1N5O1)]
 \\@


 IT CANNOT BE MY BEAUTY, FOR I HAVE NONE; AND IT CANNOT BE MY WIT,
 FOR HE HAS NOT ENOUGH TO KNOW THAT I HAVE ANY.
 -- CATHARINE SEDLEY, PUZZLED ABOUT WHY SHE WAS MISTRESS TO JAMES II
 Job cpu time:       0 days  0 hours  2 minutes  3.2 seconds.
 Elapsed time:       0 days  0 hours  2 minutes  3.6 seconds.
 File lengths (MBytes):  RWF=     99 Int=      0 D2E=      0 Chk=     17 Scr=      1
 Normal termination of Gaussian 16 at Thu Jan 30 17:15:05 2025.
