 Entering Gaussian System, Link 0=/home/pb777/GAUSSIAN/g16/g16
 Initial command:
 /home/pb777/GAUSSIAN/g16/l1.exe "/home/pb777/GAUSSIAN/g16/scratch/Gau-1062621.inp" -scrdir="/home/pb777/GAUSSIAN/g16/scratch/"
 Entering Link 1 = /home/pb777/GAUSSIAN/g16/l1.exe PID=   1062622.
  
 Copyright (c) 1988,1990,1992,1993,1995,1998,2003,2009,2016,
            Gaussian, Inc.  All Rights Reserved.
  
 This is part of the Gaussian(R) 16 program.  It is based on
 the Gaussian(R) 09 system (copyright 2009, Gaussian, Inc.),
 the Gaussian(R) 03 system (copyright 2003, Gaussian, Inc.),
 the Gaussian(R) 98 system (copyright 1998, Gaussian, Inc.),
 the Gaussian(R) 94 system (copyright 1995, Gaussian, Inc.),
 the Gaussian 92(TM) system (copyright 1992, Gaussian, Inc.),
 the Gaussian 90(TM) system (copyright 1990, Gaussian, Inc.),
 the Gaussian 88(TM) system (copyright 1988, Gaussian, Inc.),
 the Gaussian 86(TM) system (copyright 1986, Carnegie Mellon
 University), and the Gaussian 82(TM) system (copyright 1983,
 Carnegie Mellon University). Gaussian is a federally registered
 trademark of Gaussian, Inc.
  
 This software contains proprietary and confidential information,
 including trade secrets, belonging to Gaussian, Inc.
  
 This software is provided under written license and may be
 used, copied, transmitted, or stored only in accord with that
 written license.
  
 The following legend is applicable only to US Government
 contracts under FAR:
  
                    RESTRICTED RIGHTS LEGEND
  
 Use, reproduction and disclosure by the US Government is
 subject to restrictions as set forth in subparagraphs (a)
 and (c) of the Commercial Computer Software - Restricted
 Rights clause in FAR 52.227-19.
  
 Gaussian, Inc.
 340 Quinnipiac St., Bldg. 40, Wallingford CT 06492
  
  
 ---------------------------------------------------------------
 Warning -- This program may not be used in any manner that
 competes with the business of Gaussian, Inc. or will provide
 assistance to any competitor of Gaussian, Inc.  The licensee
 of this program is prohibited from giving any competitor of
 Gaussian, Inc. access to this program.  By using this program,
 the user acknowledges that Gaussian, Inc. is engaged in the
 business of creating and licensing software in the field of
 computational chemistry and represents and warrants to the
 licensee that it is not a competitor of Gaussian, Inc. and that
 it will not use this program in any manner prohibited above.
 ---------------------------------------------------------------
  

 Cite this work as:
 Gaussian 16, Revision A.03,
 M. J. Frisch, G. W. Trucks, H. B. Schlegel, G. E. Scuseria, 
 M. A. Robb, J. R. Cheeseman, G. Scalmani, V. Barone, 
 G. A. Petersson, H. Nakatsuji, X. Li, M. Caricato, A. V. Marenich, 
 J. Bloino, B. G. Janesko, R. Gomperts, B. Mennucci, H. P. Hratchian, 
 J. V. Ortiz, A. F. Izmaylov, J. L. Sonnenberg, D. Williams-Young, 
 F. Ding, F. Lipparini, F. Egidi, J. Goings, B. Peng, A. Petrone, 
 T. Henderson, D. Ranasinghe, V. G. Zakrzewski, J. Gao, N. Rega, 
 G. Zheng, W. Liang, M. Hada, M. Ehara, K. Toyota, R. Fukuda, 
 J. Hasegawa, M. Ishida, T. Nakajima, Y. Honda, O. Kitao, H. Nakai, 
 T. Vreven, K. Throssell, J. A. Montgomery, Jr., J. E. Peralta, 
 F. Ogliaro, M. J. Bearpark, J. J. Heyd, E. N. Brothers, K. N. Kudin, 
 V. N. Staroverov, T. A. Keith, R. Kobayashi, J. Normand, 
 K. Raghavachari, A. P. Rendell, J. C. Burant, S. S. Iyengar, 
 J. Tomasi, M. Cossi, J. M. Millam, M. Klene, C. Adamo, R. Cammi, 
 J. W. Ochterski, R. L. Martin, K. Morokuma, O. Farkas, 
 J. B. Foresman, and D. J. Fox, Gaussian, Inc., Wallingford CT, 2016.
 
 ******************************************
 Gaussian 16:  ES64L-G16RevA.03 25-Dec-2016
                30-Jan-2025 
 ******************************************
 %NPROC=1', f'%MEM=512MB
 Will use up to    1 processors via shared memory.
 %chk=binder_26.antechamber.chk
 ------------------------
 #P HF/6-31G* OPT(CalcFC)
 ------------------------
 1/10=4,18=20,19=15,38=1/1,3;
 2/9=110,12=2,17=6,18=5,40=1/2;
 3/5=1,6=6,7=1,11=9,25=1,30=1,71=2,140=1/1,2,3;
 4//1;
 5/5=2,38=5/2;
 8/6=4,10=90,11=11/1;
 11/6=1,8=1,9=11,15=111,16=1/1,2,10;
 10/6=1,13=1/2;
 6/7=2,8=2,9=2,10=2,28=1/1;
 7/10=1,18=20,25=1/1,2,3,16;
 1/10=4,18=20,19=15/3(2);
 2/9=110/2;
 99//99;
 2/9=110/2;
 3/5=1,6=6,7=1,11=9,25=1,30=1,71=1/1,2,3;
 4/5=5,16=3,69=1/1;
 5/5=2,38=5/2;
 7//1,2,3,16;
 1/18=20,19=15/3(-5);
 2/9=110/2;
 6/7=2,8=2,9=2,10=2,19=2,28=1/1;
 99/9=1/99;
 Leave Link    1 at Thu Jan 30 14:39:54 2025, MaxMem=           0 cpu:               0.0 elap:               0.0
 (Enter /home/pb777/GAUSSIAN/g16/l101.exe)
 --------------------
 Gaussian Calculation
 --------------------
 Symbolic Z-matrix:
 Charge =  0 Multiplicity = 1
 C                     1.422     29.034    6.768 
 C                    -1.45      32.163    8.008 
 C                    -0.582     26.625    8.978 
 C                    -1.25      25.767    10.081 
 C                    -1.355     24.331    9.527 
 C                    -1.653     23.273    10.603 
 C                    -0.781     23.343    11.865 
 C                    -0.712     24.779    12.432 
 C                    -0.388     25.86     11.38 
 C                     4.04      25.676    7.696 
 C                     4.787     25.186    6.626 
 C                     4.779     25.887    5.414 
 C                     4.045     27.064    5.286 
 N                     0.488     28.18     7.498 
 C                    -0.568     28.637    8.086 
 O                    -1.389     27.808    8.752 
 C                    -0.837     30.059    7.987 
 N                    -1.806     31.022    8.425 
 N                    -0.337     32.096    7.318 
 C                     0.012     30.844    7.311 
 N                     1.172     30.278    6.709 
 N                     2.523     28.721    6.157 
 C                     3.279     27.547    6.342 
 C                     3.297     26.85     7.558 
 H                    -1.973     33.085    8.159 
 H                    -0.54      26.054    8.043 
 H                     0.453     26.776    9.312 
 H                    -2.258     26.125    10.296 
 H                    -0.409     24.042    9.063 
 H                    -2.106     24.282    8.736 
 H                    -1.609     22.271    10.176 
 H                    -2.684     23.422    10.916 
 H                     0.23      23.014    11.618 
 H                    -1.152     22.652    12.623 
 H                    -0.027     24.811    13.273 
 H                    -1.687     25.018    12.862 
 H                    -0.474     26.853    11.824 
 H                     0.671     25.729    11.147 
 H                     4.043     25.151    8.641 
 O                     5.505     24.021    6.833 
 H                     5.351     25.55     4.564 
 H                     4.08      27.6      4.356 
 H                     0.089     32.895    6.844 
 H                     2.925     29.449    5.583 
 H                     2.732     27.213    8.403 
 C                     6.608     23.757    5.963 
 H                     7.178     22.908    6.34 
 H                     6.276     23.502    4.956 
 H                     7.294     24.604    5.907 
 
 ITRead=  0  0  0  0  0  0  0  0  0  0  0  0  0  0  0  0  0  0  0  0
 ITRead=  0  0  0  0  0  0  0  0  0  0  0  0  0  0  0  0  0  0  0  0
 ITRead=  0  0  0  0  0  0  0  0  0
 MicOpt= -1 -1 -1 -1 -1 -1 -1 -1 -1 -1 -1 -1 -1 -1 -1 -1 -1 -1 -1 -1
 MicOpt= -1 -1 -1 -1 -1 -1 -1 -1 -1 -1 -1 -1 -1 -1 -1 -1 -1 -1 -1 -1
 MicOpt= -1 -1 -1 -1 -1 -1 -1 -1 -1
 NAtoms=     49 NQM=       49 NQMF=       0 NMMI=      0 NMMIF=      0
                NMic=       0 NMicF=      0.
                    Isotopes and Nuclear Properties:
 (Nuclear quadrupole moments (NQMom) in fm**2, nuclear magnetic moments (NMagM)
  in nuclear magnetons)

  Atom         1           2           3           4           5           6           7           8           9          10
 IAtWgt=          12          12          12          12          12          12          12          12          12          12
 AtmWgt=  12.0000000  12.0000000  12.0000000  12.0000000  12.0000000  12.0000000  12.0000000  12.0000000  12.0000000  12.0000000
 NucSpn=           0           0           0           0           0           0           0           0           0           0
 AtZEff=  -0.0000000  -0.0000000  -0.0000000  -0.0000000  -0.0000000  -0.0000000  -0.0000000  -0.0000000  -0.0000000  -0.0000000
 NQMom=    0.0000000   0.0000000   0.0000000   0.0000000   0.0000000   0.0000000   0.0000000   0.0000000   0.0000000   0.0000000
 NMagM=    0.0000000   0.0000000   0.0000000   0.0000000   0.0000000   0.0000000   0.0000000   0.0000000   0.0000000   0.0000000
 AtZNuc=   6.0000000   6.0000000   6.0000000   6.0000000   6.0000000   6.0000000   6.0000000   6.0000000   6.0000000   6.0000000

  Atom        11          12          13          14          15          16          17          18          19          20
 IAtWgt=          12          12          12          14          12          16          12          14          14          12
 AtmWgt=  12.0000000  12.0000000  12.0000000  14.0030740  12.0000000  15.9949146  12.0000000  14.0030740  14.0030740  12.0000000
 NucSpn=           0           0           0           2           0           0           0           2           2           0
 AtZEff=  -0.0000000  -0.0000000  -0.0000000  -0.0000000  -0.0000000  -0.0000000  -0.0000000  -0.0000000  -0.0000000  -0.0000000
 NQMom=    0.0000000   0.0000000   0.0000000   2.0440000   0.0000000   0.0000000   0.0000000   2.0440000   2.0440000   0.0000000
 NMagM=    0.0000000   0.0000000   0.0000000   0.4037610   0.0000000   0.0000000   0.0000000   0.4037610   0.4037610   0.0000000
 AtZNuc=   6.0000000   6.0000000   6.0000000   7.0000000   6.0000000   8.0000000   6.0000000   7.0000000   7.0000000   6.0000000

  Atom        21          22          23          24          25          26          27          28          29          30
 IAtWgt=          14          14          12          12           1           1           1           1           1           1
 AtmWgt=  14.0030740  14.0030740  12.0000000  12.0000000   1.0078250   1.0078250   1.0078250   1.0078250   1.0078250   1.0078250
 NucSpn=           2           2           0           0           1           1           1           1           1           1
 AtZEff=  -0.0000000  -0.0000000  -0.0000000  -0.0000000  -0.0000000  -0.0000000  -0.0000000  -0.0000000  -0.0000000  -0.0000000
 NQMom=    2.0440000   2.0440000   0.0000000   0.0000000   0.0000000   0.0000000   0.0000000   0.0000000   0.0000000   0.0000000
 NMagM=    0.4037610   0.4037610   0.0000000   0.0000000   2.7928460   2.7928460   2.7928460   2.7928460   2.7928460   2.7928460
 AtZNuc=   7.0000000   7.0000000   6.0000000   6.0000000   1.0000000   1.0000000   1.0000000   1.0000000   1.0000000   1.0000000

  Atom        31          32          33          34          35          36          37          38          39          40
 IAtWgt=           1           1           1           1           1           1           1           1           1          16
 AtmWgt=   1.0078250   1.0078250   1.0078250   1.0078250   1.0078250   1.0078250   1.0078250   1.0078250   1.0078250  15.9949146
 NucSpn=           1           1           1           1           1           1           1           1           1           0
 AtZEff=  -0.0000000  -0.0000000  -0.0000000  -0.0000000  -0.0000000  -0.0000000  -0.0000000  -0.0000000  -0.0000000  -0.0000000
 NQMom=    0.0000000   0.0000000   0.0000000   0.0000000   0.0000000   0.0000000   0.0000000   0.0000000   0.0000000   0.0000000
 NMagM=    2.7928460   2.7928460   2.7928460   2.7928460   2.7928460   2.7928460   2.7928460   2.7928460   2.7928460   0.0000000
 AtZNuc=   1.0000000   1.0000000   1.0000000   1.0000000   1.0000000   1.0000000   1.0000000   1.0000000   1.0000000   8.0000000

  Atom        41          42          43          44          45          46          47          48          49
 IAtWgt=           1           1           1           1           1          12           1           1           1
 AtmWgt=   1.0078250   1.0078250   1.0078250   1.0078250   1.0078250  12.0000000   1.0078250   1.0078250   1.0078250
 NucSpn=           1           1           1           1           1           0           1           1           1
 AtZEff=  -0.0000000  -0.0000000  -0.0000000  -0.0000000  -0.0000000  -0.0000000  -0.0000000  -0.0000000  -0.0000000
 NQMom=    0.0000000   0.0000000   0.0000000   0.0000000   0.0000000   0.0000000   0.0000000   0.0000000   0.0000000
 NMagM=    2.7928460   2.7928460   2.7928460   2.7928460   2.7928460   0.0000000   2.7928460   2.7928460   2.7928460
 AtZNuc=   1.0000000   1.0000000   1.0000000   1.0000000   1.0000000   6.0000000   1.0000000   1.0000000   1.0000000
 Leave Link  101 at Thu Jan 30 14:39:54 2025, MaxMem=   104857600 cpu:               0.1 elap:               0.2
 (Enter /home/pb777/GAUSSIAN/g16/l103.exe)

 GradGradGradGradGradGradGradGradGradGradGradGradGradGradGradGradGradGrad
 Berny optimization.
 Initialization pass.
                           ----------------------------
                           !    Initial Parameters    !
                           ! (Angstroms and Degrees)  !
 --------------------------                            --------------------------
 ! Name  Definition              Value          Derivative Info.                !
 --------------------------------------------------------------------------------
 ! R1    R(1,14)                 1.461          calculate D2E/DX2 analytically  !
 ! R2    R(1,21)                 1.2702         calculate D2E/DX2 analytically  !
 ! R3    R(1,22)                 1.2975         calculate D2E/DX2 analytically  !
 ! R4    R(2,18)                 1.2659         calculate D2E/DX2 analytically  !
 ! R5    R(2,19)                 1.3112         calculate D2E/DX2 analytically  !
 ! R6    R(2,25)                 1.0707         calculate D2E/DX2 analytically  !
 ! R7    R(3,4)                  1.5489         calculate D2E/DX2 analytically  !
 ! R8    R(3,16)                 1.4498         calculate D2E/DX2 analytically  !
 ! R9    R(3,26)                 1.0964         calculate D2E/DX2 analytically  !
 ! R10   R(3,27)                 1.098          calculate D2E/DX2 analytically  !
 ! R11   R(4,5)                  1.5427         calculate D2E/DX2 analytically  !
 ! R12   R(4,9)                  1.5618         calculate D2E/DX2 analytically  !
 ! R13   R(4,28)                 1.0911         calculate D2E/DX2 analytically  !
 ! R14   R(5,6)                  1.5382         calculate D2E/DX2 analytically  !
 ! R15   R(5,29)                 1.0926         calculate D2E/DX2 analytically  !
 ! R16   R(5,30)                 1.0918         calculate D2E/DX2 analytically  !
 ! R17   R(6,7)                  1.5356         calculate D2E/DX2 analytically  !
 ! R18   R(6,31)                 1.0901         calculate D2E/DX2 analytically  !
 ! R19   R(6,32)                 1.0877         calculate D2E/DX2 analytically  !
 ! R20   R(7,8)                  1.5454         calculate D2E/DX2 analytically  !
 ! R21   R(7,33)                 1.0915         calculate D2E/DX2 analytically  !
 ! R22   R(7,34)                 1.0907         calculate D2E/DX2 analytically  !
 ! R23   R(8,9)                  1.5428         calculate D2E/DX2 analytically  !
 ! R24   R(8,35)                 1.0851         calculate D2E/DX2 analytically  !
 ! R25   R(8,36)                 1.0921         calculate D2E/DX2 analytically  !
 ! R26   R(9,37)                 1.0911         calculate D2E/DX2 analytically  !
 ! R27   R(9,38)                 1.0922         calculate D2E/DX2 analytically  !
 ! R28   R(10,11)                1.3939         calculate D2E/DX2 analytically  !
 ! R29   R(10,24)                1.3962         calculate D2E/DX2 analytically  !
 ! R30   R(10,39)                1.081          calculate D2E/DX2 analytically  !
 ! R31   R(11,12)                1.4001         calculate D2E/DX2 analytically  !
 ! R32   R(11,40)                1.3841         calculate D2E/DX2 analytically  !
 ! R33   R(12,13)                1.393          calculate D2E/DX2 analytically  !
 ! R34   R(12,41)                1.0785         calculate D2E/DX2 analytically  !
 ! R35   R(13,23)                1.3911         calculate D2E/DX2 analytically  !
 ! R36   R(13,42)                1.074          calculate D2E/DX2 analytically  !
 ! R37   R(14,15)                1.2922         calculate D2E/DX2 analytically  !
 ! R38   R(15,16)                1.3434         calculate D2E/DX2 analytically  !
 ! R39   R(15,17)                1.4506         calculate D2E/DX2 analytically  !
 ! R40   R(17,18)                1.4346         calculate D2E/DX2 analytically  !
 ! R41   R(17,20)                1.3394         calculate D2E/DX2 analytically  !
 ! R42   R(19,20)                1.2998         calculate D2E/DX2 analytically  !
 ! R43   R(19,43)                1.022          calculate D2E/DX2 analytically  !
 ! R44   R(20,21)                1.4242         calculate D2E/DX2 analytically  !
 ! R45   R(22,23)                1.4086         calculate D2E/DX2 analytically  !
 ! R46   R(22,44)                1.0105         calculate D2E/DX2 analytically  !
 ! R47   R(23,24)                1.4017         calculate D2E/DX2 analytically  !
 ! R48   R(24,45)                1.0794         calculate D2E/DX2 analytically  !
 ! R49   R(40,46)                1.4294         calculate D2E/DX2 analytically  !
 ! R50   R(46,47)                1.0899         calculate D2E/DX2 analytically  !
 ! R51   R(46,48)                1.0905         calculate D2E/DX2 analytically  !
 ! R52   R(46,49)                1.0914         calculate D2E/DX2 analytically  !
 ! A1    A(14,1,21)            118.0237         calculate D2E/DX2 analytically  !
 ! A2    A(14,1,22)            129.5499         calculate D2E/DX2 analytically  !
 ! A3    A(21,1,22)            112.4195         calculate D2E/DX2 analytically  !
 ! A4    A(18,2,19)            111.4686         calculate D2E/DX2 analytically  !
 ! A5    A(18,2,25)            126.3224         calculate D2E/DX2 analytically  !
 ! A6    A(19,2,25)            122.1965         calculate D2E/DX2 analytically  !
 ! A7    A(4,3,16)             108.8423         calculate D2E/DX2 analytically  !
 ! A8    A(4,3,26)             109.5929         calculate D2E/DX2 analytically  !
 ! A9    A(4,3,27)             105.4321         calculate D2E/DX2 analytically  !
 ! A10   A(16,3,26)            108.2618         calculate D2E/DX2 analytically  !
 ! A11   A(16,3,27)            117.3813         calculate D2E/DX2 analytically  !
 ! A12   A(26,3,27)            107.1535         calculate D2E/DX2 analytically  !
 ! A13   A(3,4,5)              106.8132         calculate D2E/DX2 analytically  !
 ! A14   A(3,4,9)              108.7409         calculate D2E/DX2 analytically  !
 ! A15   A(3,4,28)             110.9167         calculate D2E/DX2 analytically  !
 ! A16   A(5,4,9)              113.059          calculate D2E/DX2 analytically  !
 ! A17   A(5,4,28)             108.2581         calculate D2E/DX2 analytically  !
 ! A18   A(9,4,28)             109.0551         calculate D2E/DX2 analytically  !
 ! A19   A(4,5,6)              113.7174         calculate D2E/DX2 analytically  !
 ! A20   A(4,5,29)             109.8638         calculate D2E/DX2 analytically  !
 ! A21   A(4,5,30)             110.4108         calculate D2E/DX2 analytically  !
 ! A22   A(6,5,29)             106.4326         calculate D2E/DX2 analytically  !
 ! A23   A(6,5,30)             110.0394         calculate D2E/DX2 analytically  !
 ! A24   A(29,5,30)            106.0225         calculate D2E/DX2 analytically  !
 ! A25   A(5,6,7)              115.6925         calculate D2E/DX2 analytically  !
 ! A26   A(5,6,31)             110.5129         calculate D2E/DX2 analytically  !
 ! A27   A(5,6,32)             106.9005         calculate D2E/DX2 analytically  !
 ! A28   A(7,6,31)             109.9325         calculate D2E/DX2 analytically  !
 ! A29   A(7,6,32)             107.1888         calculate D2E/DX2 analytically  !
 ! A30   A(31,6,32)            106.0749         calculate D2E/DX2 analytically  !
 ! A31   A(6,7,8)              111.6688         calculate D2E/DX2 analytically  !
 ! A32   A(6,7,33)             109.0426         calculate D2E/DX2 analytically  !
 ! A33   A(6,7,34)             110.4329         calculate D2E/DX2 analytically  !
 ! A34   A(8,7,33)             108.7686         calculate D2E/DX2 analytically  !
 ! A35   A(8,7,34)             110.4189         calculate D2E/DX2 analytically  !
 ! A36   A(33,7,34)            106.3414         calculate D2E/DX2 analytically  !
 ! A37   A(7,8,9)              114.2214         calculate D2E/DX2 analytically  !
 ! A38   A(7,8,35)             109.8726         calculate D2E/DX2 analytically  !
 ! A39   A(7,8,36)             107.9358         calculate D2E/DX2 analytically  !
 ! A40   A(9,8,35)             112.0387         calculate D2E/DX2 analytically  !
 ! A41   A(9,8,36)             107.616          calculate D2E/DX2 analytically  !
 ! A42   A(35,8,36)            104.5939         calculate D2E/DX2 analytically  !
 ! A43   A(4,9,8)              114.1745         calculate D2E/DX2 analytically  !
 ! A44   A(4,9,37)             110.4349         calculate D2E/DX2 analytically  !
 ! A45   A(4,9,38)             110.5227         calculate D2E/DX2 analytically  !
 ! A46   A(8,9,37)             110.0986         calculate D2E/DX2 analytically  !
 ! A47   A(8,9,38)             105.3697         calculate D2E/DX2 analytically  !
 ! A48   A(37,9,38)            105.8059         calculate D2E/DX2 analytically  !
 ! A49   A(11,10,24)           120.3244         calculate D2E/DX2 analytically  !
 ! A50   A(11,10,39)           119.9216         calculate D2E/DX2 analytically  !
 ! A51   A(24,10,39)           119.751          calculate D2E/DX2 analytically  !
 ! A52   A(10,11,12)           119.0395         calculate D2E/DX2 analytically  !
 ! A53   A(10,11,40)           117.3285         calculate D2E/DX2 analytically  !
 ! A54   A(12,11,40)           123.6316         calculate D2E/DX2 analytically  !
 ! A55   A(11,12,13)           120.3697         calculate D2E/DX2 analytically  !
 ! A56   A(11,12,41)           121.5157         calculate D2E/DX2 analytically  !
 ! A57   A(13,12,41)           118.1018         calculate D2E/DX2 analytically  !
 ! A58   A(12,13,23)           120.9143         calculate D2E/DX2 analytically  !
 ! A59   A(12,13,42)           118.9527         calculate D2E/DX2 analytically  !
 ! A60   A(23,13,42)           120.1327         calculate D2E/DX2 analytically  !
 ! A61   A(1,14,15)            122.8931         calculate D2E/DX2 analytically  !
 ! A62   A(14,15,16)           120.4487         calculate D2E/DX2 analytically  !
 ! A63   A(14,15,17)           117.8516         calculate D2E/DX2 analytically  !
 ! A64   A(16,15,17)           121.696          calculate D2E/DX2 analytically  !
 ! A65   A(3,16,15)            103.9239         calculate D2E/DX2 analytically  !
 ! A66   A(15,17,18)           139.6791         calculate D2E/DX2 analytically  !
 ! A67   A(15,17,20)           119.4344         calculate D2E/DX2 analytically  !
 ! A68   A(18,17,20)           100.8835         calculate D2E/DX2 analytically  !
 ! A69   A(2,18,17)            108.3309         calculate D2E/DX2 analytically  !
 ! A70   A(2,19,20)            106.2584         calculate D2E/DX2 analytically  !
 ! A71   A(2,19,43)            123.9109         calculate D2E/DX2 analytically  !
 ! A72   A(20,19,43)           129.6901         calculate D2E/DX2 analytically  !
 ! A73   A(17,20,19)           113.056          calculate D2E/DX2 analytically  !
 ! A74   A(17,20,21)           119.7814         calculate D2E/DX2 analytically  !
 ! A75   A(19,20,21)           127.1419         calculate D2E/DX2 analytically  !
 ! A76   A(1,21,20)            121.9969         calculate D2E/DX2 analytically  !
 ! A77   A(1,22,23)            126.4878         calculate D2E/DX2 analytically  !
 ! A78   A(1,22,44)            115.5491         calculate D2E/DX2 analytically  !
 ! A79   A(23,22,44)           117.488          calculate D2E/DX2 analytically  !
 ! A80   A(13,23,22)           119.0272         calculate D2E/DX2 analytically  !
 ! A81   A(13,23,24)           118.6081         calculate D2E/DX2 analytically  !
 ! A82   A(22,23,24)           122.3627         calculate D2E/DX2 analytically  !
 ! A83   A(10,24,23)           120.71           calculate D2E/DX2 analytically  !
 ! A84   A(10,24,45)           118.9452         calculate D2E/DX2 analytically  !
 ! A85   A(23,24,45)           120.3445         calculate D2E/DX2 analytically  !
 ! A86   A(11,40,46)           117.6932         calculate D2E/DX2 analytically  !
 ! A87   A(40,46,47)           109.6884         calculate D2E/DX2 analytically  !
 ! A88   A(40,46,48)           111.7332         calculate D2E/DX2 analytically  !
 ! A89   A(40,46,49)           111.8957         calculate D2E/DX2 analytically  !
 ! A90   A(47,46,48)           107.2462         calculate D2E/DX2 analytically  !
 ! A91   A(47,46,49)           107.0717         calculate D2E/DX2 analytically  !
 ! A92   A(48,46,49)           108.9922         calculate D2E/DX2 analytically  !
 ! D1    D(21,1,14,15)          -0.3723         calculate D2E/DX2 analytically  !
 ! D2    D(22,1,14,15)         178.5919         calculate D2E/DX2 analytically  !
 ! D3    D(14,1,21,20)          -0.941          calculate D2E/DX2 analytically  !
 ! D4    D(22,1,21,20)         179.9229         calculate D2E/DX2 analytically  !
 ! D5    D(14,1,22,23)         -18.3687         calculate D2E/DX2 analytically  !
 ! D6    D(14,1,22,44)         169.789          calculate D2E/DX2 analytically  !
 ! D7    D(21,1,22,23)         160.6422         calculate D2E/DX2 analytically  !
 ! D8    D(21,1,22,44)         -11.2001         calculate D2E/DX2 analytically  !
 ! D9    D(19,2,18,17)           0.3509         calculate D2E/DX2 analytically  !
 ! D10   D(25,2,18,17)         179.0796         calculate D2E/DX2 analytically  !
 ! D11   D(18,2,19,20)          -0.0571         calculate D2E/DX2 analytically  !
 ! D12   D(18,2,19,43)         175.9999         calculate D2E/DX2 analytically  !
 ! D13   D(25,2,19,20)        -178.8468         calculate D2E/DX2 analytically  !
 ! D14   D(25,2,19,43)          -2.7898         calculate D2E/DX2 analytically  !
 ! D15   D(16,3,4,5)           129.1727         calculate D2E/DX2 analytically  !
 ! D16   D(16,3,4,9)          -108.5107         calculate D2E/DX2 analytically  !
 ! D17   D(16,3,4,28)           11.4065         calculate D2E/DX2 analytically  !
 ! D18   D(26,3,4,5)            10.9489         calculate D2E/DX2 analytically  !
 ! D19   D(26,3,4,9)           133.2654         calculate D2E/DX2 analytically  !
 ! D20   D(26,3,4,28)         -106.8174         calculate D2E/DX2 analytically  !
 ! D21   D(27,3,4,5)          -104.0769         calculate D2E/DX2 analytically  !
 ! D22   D(27,3,4,9)            18.2396         calculate D2E/DX2 analytically  !
 ! D23   D(27,3,4,28)          138.1568         calculate D2E/DX2 analytically  !
 ! D24   D(4,3,16,15)          163.4859         calculate D2E/DX2 analytically  !
 ! D25   D(26,3,16,15)         -77.4545         calculate D2E/DX2 analytically  !
 ! D26   D(27,3,16,15)          43.9225         calculate D2E/DX2 analytically  !
 ! D27   D(3,4,5,6)            164.9645         calculate D2E/DX2 analytically  !
 ! D28   D(3,4,5,29)            45.8044         calculate D2E/DX2 analytically  !
 ! D29   D(3,4,5,30)           -70.7837         calculate D2E/DX2 analytically  !
 ! D30   D(9,4,5,6)             45.3994         calculate D2E/DX2 analytically  !
 ! D31   D(9,4,5,29)           -73.7607         calculate D2E/DX2 analytically  !
 ! D32   D(9,4,5,30)           169.6512         calculate D2E/DX2 analytically  !
 ! D33   D(28,4,5,6)           -75.5363         calculate D2E/DX2 analytically  !
 ! D34   D(28,4,5,29)          165.3036         calculate D2E/DX2 analytically  !
 ! D35   D(28,4,5,30)           48.7155         calculate D2E/DX2 analytically  !
 ! D36   D(3,4,9,8)           -164.5526         calculate D2E/DX2 analytically  !
 ! D37   D(3,4,9,37)            70.7518         calculate D2E/DX2 analytically  !
 ! D38   D(3,4,9,38)           -45.9818         calculate D2E/DX2 analytically  !
 ! D39   D(5,4,9,8)            -46.1023         calculate D2E/DX2 analytically  !
 ! D40   D(5,4,9,37)          -170.7978         calculate D2E/DX2 analytically  !
 ! D41   D(5,4,9,38)            72.4686         calculate D2E/DX2 analytically  !
 ! D42   D(28,4,9,8)            74.3803         calculate D2E/DX2 analytically  !
 ! D43   D(28,4,9,37)          -50.3152         calculate D2E/DX2 analytically  !
 ! D44   D(28,4,9,38)         -167.0488         calculate D2E/DX2 analytically  !
 ! D45   D(4,5,6,7)            -48.1359         calculate D2E/DX2 analytically  !
 ! D46   D(4,5,6,31)          -173.8634         calculate D2E/DX2 analytically  !
 ! D47   D(4,5,6,32)            71.1339         calculate D2E/DX2 analytically  !
 ! D48   D(29,5,6,7)            72.9625         calculate D2E/DX2 analytically  !
 ! D49   D(29,5,6,31)          -52.765          calculate D2E/DX2 analytically  !
 ! D50   D(29,5,6,32)         -167.7677         calculate D2E/DX2 analytically  !
 ! D51   D(30,5,6,7)          -172.588          calculate D2E/DX2 analytically  !
 ! D52   D(30,5,6,31)           61.6846         calculate D2E/DX2 analytically  !
 ! D53   D(30,5,6,32)          -53.3181         calculate D2E/DX2 analytically  !
 ! D54   D(5,6,7,8)             48.8375         calculate D2E/DX2 analytically  !
 ! D55   D(5,6,7,33)           -71.3873         calculate D2E/DX2 analytically  !
 ! D56   D(5,6,7,34)           172.1111         calculate D2E/DX2 analytically  !
 ! D57   D(31,6,7,8)           174.8605         calculate D2E/DX2 analytically  !
 ! D58   D(31,6,7,33)           54.6357         calculate D2E/DX2 analytically  !
 ! D59   D(31,6,7,34)          -61.8659         calculate D2E/DX2 analytically  !
 ! D60   D(32,6,7,8)           -70.2741         calculate D2E/DX2 analytically  !
 ! D61   D(32,6,7,33)          169.5011         calculate D2E/DX2 analytically  !
 ! D62   D(32,6,7,34)           52.9995         calculate D2E/DX2 analytically  !
 ! D63   D(6,7,8,9)            -48.5808         calculate D2E/DX2 analytically  !
 ! D64   D(6,7,8,35)          -175.4589         calculate D2E/DX2 analytically  !
 ! D65   D(6,7,8,36)            71.0503         calculate D2E/DX2 analytically  !
 ! D66   D(33,7,8,9)            71.8045         calculate D2E/DX2 analytically  !
 ! D67   D(33,7,8,35)          -55.0736         calculate D2E/DX2 analytically  !
 ! D68   D(33,7,8,36)         -168.5644         calculate D2E/DX2 analytically  !
 ! D69   D(34,7,8,9)          -171.8623         calculate D2E/DX2 analytically  !
 ! D70   D(34,7,8,35)           61.2596         calculate D2E/DX2 analytically  !
 ! D71   D(34,7,8,36)          -52.2312         calculate D2E/DX2 analytically  !
 ! D72   D(7,8,9,4)             48.3294         calculate D2E/DX2 analytically  !
 ! D73   D(7,8,9,37)           173.2037         calculate D2E/DX2 analytically  !
 ! D74   D(7,8,9,38)           -73.1317         calculate D2E/DX2 analytically  !
 ! D75   D(35,8,9,4)           174.0786         calculate D2E/DX2 analytically  !
 ! D76   D(35,8,9,37)          -61.0471         calculate D2E/DX2 analytically  !
 ! D77   D(35,8,9,38)           52.6175         calculate D2E/DX2 analytically  !
 ! D78   D(36,8,9,4)           -71.4813         calculate D2E/DX2 analytically  !
 ! D79   D(36,8,9,37)           53.393          calculate D2E/DX2 analytically  !
 ! D80   D(36,8,9,38)          167.0576         calculate D2E/DX2 analytically  !
 ! D81   D(24,10,11,12)         -0.0744         calculate D2E/DX2 analytically  !
 ! D82   D(24,10,11,40)        179.7121         calculate D2E/DX2 analytically  !
 ! D83   D(39,10,11,12)       -179.4494         calculate D2E/DX2 analytically  !
 ! D84   D(39,10,11,40)          0.3371         calculate D2E/DX2 analytically  !
 ! D85   D(11,10,24,23)          0.6099         calculate D2E/DX2 analytically  !
 ! D86   D(11,10,24,45)       -179.5859         calculate D2E/DX2 analytically  !
 ! D87   D(39,10,24,23)        179.986          calculate D2E/DX2 analytically  !
 ! D88   D(39,10,24,45)         -0.2098         calculate D2E/DX2 analytically  !
 ! D89   D(10,11,12,13)          0.6343         calculate D2E/DX2 analytically  !
 ! D90   D(10,11,12,41)        179.3069         calculate D2E/DX2 analytically  !
 ! D91   D(40,11,12,13)       -179.1379         calculate D2E/DX2 analytically  !
 ! D92   D(40,11,12,41)         -0.4653         calculate D2E/DX2 analytically  !
 ! D93   D(10,11,40,46)       -158.5822         calculate D2E/DX2 analytically  !
 ! D94   D(12,11,40,46)         21.1936         calculate D2E/DX2 analytically  !
 ! D95   D(11,12,13,23)         -1.7518         calculate D2E/DX2 analytically  !
 ! D96   D(11,12,13,42)        178.0682         calculate D2E/DX2 analytically  !
 ! D97   D(41,12,13,23)        179.5311         calculate D2E/DX2 analytically  !
 ! D98   D(41,12,13,42)         -0.6489         calculate D2E/DX2 analytically  !
 ! D99   D(12,13,23,22)       -178.2507         calculate D2E/DX2 analytically  !
 ! D100  D(12,13,23,24)          2.2445         calculate D2E/DX2 analytically  !
 ! D101  D(42,13,23,22)          1.9315         calculate D2E/DX2 analytically  !
 ! D102  D(42,13,23,24)       -177.5734         calculate D2E/DX2 analytically  !
 ! D103  D(1,14,15,16)        -179.5335         calculate D2E/DX2 analytically  !
 ! D104  D(1,14,15,17)           1.1588         calculate D2E/DX2 analytically  !
 ! D105  D(14,15,16,3)          18.2854         calculate D2E/DX2 analytically  !
 ! D106  D(17,15,16,3)        -162.4339         calculate D2E/DX2 analytically  !
 ! D107  D(14,15,17,18)       -179.8954         calculate D2E/DX2 analytically  !
 ! D108  D(14,15,17,20)         -0.6675         calculate D2E/DX2 analytically  !
 ! D109  D(16,15,17,18)          0.806          calculate D2E/DX2 analytically  !
 ! D110  D(16,15,17,20)       -179.9661         calculate D2E/DX2 analytically  !
 ! D111  D(15,17,18,2)         178.8317         calculate D2E/DX2 analytically  !
 ! D112  D(20,17,18,2)          -0.4835         calculate D2E/DX2 analytically  !
 ! D113  D(15,17,20,19)       -179.0241         calculate D2E/DX2 analytically  !
 ! D114  D(15,17,20,21)         -0.5623         calculate D2E/DX2 analytically  !
 ! D115  D(18,17,20,19)          0.4672         calculate D2E/DX2 analytically  !
 ! D116  D(18,17,20,21)        178.9289         calculate D2E/DX2 analytically  !
 ! D117  D(2,19,20,17)          -0.2906         calculate D2E/DX2 analytically  !
 ! D118  D(2,19,20,21)        -178.6158         calculate D2E/DX2 analytically  !
 ! D119  D(43,19,20,17)       -176.0375         calculate D2E/DX2 analytically  !
 ! D120  D(43,19,20,21)          5.6373         calculate D2E/DX2 analytically  !
 ! D121  D(17,20,21,1)           1.4077         calculate D2E/DX2 analytically  !
 ! D122  D(19,20,21,1)         179.6321         calculate D2E/DX2 analytically  !
 ! D123  D(1,22,23,13)         151.8667         calculate D2E/DX2 analytically  !
 ! D124  D(1,22,23,24)         -28.6479         calculate D2E/DX2 analytically  !
 ! D125  D(44,22,23,13)        -36.4309         calculate D2E/DX2 analytically  !
 ! D126  D(44,22,23,24)        143.0544         calculate D2E/DX2 analytically  !
 ! D127  D(13,23,24,10)         -1.6762         calculate D2E/DX2 analytically  !
 ! D128  D(13,23,24,45)        178.5223         calculate D2E/DX2 analytically  !
 ! D129  D(22,23,24,10)        178.8364         calculate D2E/DX2 analytically  !
 ! D130  D(22,23,24,45)         -0.9651         calculate D2E/DX2 analytically  !
 ! D131  D(11,40,46,47)        170.468          calculate D2E/DX2 analytically  !
 ! D132  D(11,40,46,48)        -70.7408         calculate D2E/DX2 analytically  !
 ! D133  D(11,40,46,49)         51.7925         calculate D2E/DX2 analytically  !
 --------------------------------------------------------------------------------
 Trust Radius=3.00D-01 FncErr=1.00D-07 GrdErr=1.00D-07 EigMax=2.50D+02 EigMin=1.00D-04
 Number of steps in this run=    287 maximum allowed number of steps=    294.
 GradGradGradGradGradGradGradGradGradGradGradGradGradGradGradGradGradGrad

 Leave Link  103 at Thu Jan 30 14:39:54 2025, MaxMem=   104857600 cpu:               0.0 elap:               0.0
 (Enter /home/pb777/GAUSSIAN/g16/l202.exe)
                          Input orientation:                          
 ---------------------------------------------------------------------
 Center     Atomic      Atomic             Coordinates (Angstroms)
 Number     Number       Type             X           Y           Z
 ---------------------------------------------------------------------
      1          6           0        1.422000   29.034000    6.768000
      2          6           0       -1.450000   32.163000    8.008000
      3          6           0       -0.582000   26.625000    8.978000
      4          6           0       -1.250000   25.767000   10.081000
      5          6           0       -1.355000   24.331000    9.527000
      6          6           0       -1.653000   23.273000   10.603000
      7          6           0       -0.781000   23.343000   11.865000
      8          6           0       -0.712000   24.779000   12.432000
      9          6           0       -0.388000   25.860000   11.380000
     10          6           0        4.040000   25.676000    7.696000
     11          6           0        4.787000   25.186000    6.626000
     12          6           0        4.779000   25.887000    5.414000
     13          6           0        4.045000   27.064000    5.286000
     14          7           0        0.488000   28.180000    7.498000
     15          6           0       -0.568000   28.637000    8.086000
     16          8           0       -1.389000   27.808000    8.752000
     17          6           0       -0.837000   30.059000    7.987000
     18          7           0       -1.806000   31.022000    8.425000
     19          7           0       -0.337000   32.096000    7.318000
     20          6           0        0.012000   30.844000    7.311000
     21          7           0        1.172000   30.278000    6.709000
     22          7           0        2.523000   28.721000    6.157000
     23          6           0        3.279000   27.547000    6.342000
     24          6           0        3.297000   26.850000    7.558000
     25          1           0       -1.973000   33.085000    8.159000
     26          1           0       -0.540000   26.054000    8.043000
     27          1           0        0.453000   26.776000    9.312000
     28          1           0       -2.258000   26.125000   10.296000
     29          1           0       -0.409000   24.042000    9.063000
     30          1           0       -2.106000   24.282000    8.736000
     31          1           0       -1.609000   22.271000   10.176000
     32          1           0       -2.684000   23.422000   10.916000
     33          1           0        0.230000   23.014000   11.618000
     34          1           0       -1.152000   22.652000   12.623000
     35          1           0       -0.027000   24.811000   13.273000
     36          1           0       -1.687000   25.018000   12.862000
     37          1           0       -0.474000   26.853000   11.824000
     38          1           0        0.671000   25.729000   11.147000
     39          1           0        4.043000   25.151000    8.641000
     40          8           0        5.505000   24.021000    6.833000
     41          1           0        5.351000   25.550000    4.564000
     42          1           0        4.080000   27.600000    4.356000
     43          1           0        0.089000   32.895000    6.844000
     44          1           0        2.925000   29.449000    5.583000
     45          1           0        2.732000   27.213000    8.403000
     46          6           0        6.608000   23.757000    5.963000
     47          1           0        7.178000   22.908000    6.340000
     48          1           0        6.276000   23.502000    4.956000
     49          1           0        7.294000   24.604000    5.907000
 ---------------------------------------------------------------------
                    Distance matrix (angstroms):
                    1          2          3          4          5
     1  C    0.000000
     2  C    4.424548   0.000000
     3  C    3.834501   5.688916   0.000000
     4  C    5.365523   6.726525   1.548870   0.000000
     5  C    6.118988   7.978509   2.482210   1.542737   0.000000
     6  C    7.573108   9.263225   3.876025   2.579715   1.538163
     7  C    7.951107   9.649684   4.375602   3.046045   2.602281
     8  C    7.398640   8.639437   3.918511   2.606298   3.008850
     9  C    5.883954   7.226758   2.528332   1.561760   2.589699
    10  C    4.357898   8.504035   4.889479   5.803499   5.853854
    11  C    5.113755   9.459843   6.035626   6.979968   6.846239
    12  C    4.796496   9.215067   6.479742   7.625230   7.547441
    13  C    3.599632   7.975218   5.935715   7.260252   7.390221
    14  N    1.461017   4.458725   2.398609   3.938921   4.725282
    15  C    2.419676   3.635476   2.200910   3.561186   4.608415
    16  O    3.652541   4.418516   1.449763   2.439517   3.562486
    17  C    2.763995   2.191581   3.583220   4.793398   5.953983
    18  N    4.137364   1.265901   4.597564   5.537734   6.796123
    19  N    3.573853   1.311243   5.722540   6.965916   8.137028
    20  C    2.357764   2.088783   4.575116   5.919584   7.014165
    21  N    1.270243   3.480734   4.644275   6.130709   7.049373
    22  N    1.297494   5.572997   4.689593   6.193498   6.757802
    23  C    2.416836   6.815163   4.765071   6.136804   6.477719
    24  C    2.984892   7.138941   4.136867   5.311650   5.644770
    25  H    5.465483   1.070707   6.658622   7.600654   8.881771
    26  H    3.788861   6.176504   1.096371   2.177134   2.415618
    27  H    3.536872   5.860170   1.097990   2.123594   3.048461
    28  H    5.869537   6.507323   2.190000   1.091079   2.150629
    29  H    5.791343   8.255141   2.590182   2.172379   1.092581
    30  H    6.237092   7.941693   2.805493   2.178758   1.091826
    31  H    8.157181  10.128039   4.631117   3.515668   2.174699
    32  H    8.096893   9.294316   4.293420   2.872735   2.126463
    33  H    7.822005   9.977911   4.546236   3.483070   2.935812
    34  H    9.035288  10.575734   5.421776   4.021765   3.527813
    35  H    7.889763   9.154073   4.695279   3.549441   4.003311
    36  H    7.932904   8.641094   4.346140   2.913062   3.421172
    37  H    5.823634   6.611394   2.857160   2.195364   3.523188
    38  H    5.537388   7.466480   2.660336   2.197280   2.946775
    39  H    5.045340   8.929831   4.865888   5.519865   5.531347
    40  O    6.465701  10.772410   6.959412   7.695976   7.376540
    41  H    5.694990  10.091903   7.472584   8.605671   8.431356
    42  H    3.865109   8.046053   6.636848   8.033954   8.183204
    43  H    4.085338   2.063793   6.657109   7.942259   9.089869
    44  H    1.958433   5.690962   5.639153   7.156798   7.750320
    45  H    2.775854   6.492122   3.414523   4.556635   5.125707
    46  C    7.442402  11.822615   8.307331   9.096493   8.743051
    47  H    8.416804  12.762431   8.999596   9.654022   9.219218
    48  H    7.579425  12.000779   8.541767   9.382778   8.933837
    49  H    7.405849  11.747775   8.691770   9.579916   9.379986
                    6          7          8          9         10
     6  C    0.000000
     7  C    1.535555   0.000000
     8  C    2.549266   1.545427   0.000000
     9  C    2.982704   2.593253   1.542803   0.000000
    10  C    6.829005   6.787156   6.768738   5.763063   0.000000
    11  C    7.807029   7.864248   8.007140   7.059420   1.393919
    12  C    8.667718   8.888247   8.979480   7.892514   2.407938
    13  C    8.666566   8.967684   8.883445   7.631379   2.781127
    14  N    6.188987   6.639098   6.111559   4.606485   4.350394
    15  C    6.023704   6.507891   5.813142   4.312142   5.491201
    16  O    4.905316   5.476920   4.814101   3.420978   5.927445
    17  C    7.318409   7.755429   6.903046   5.417163   6.563574
    18  N    8.050720   8.476513   7.498529   6.114654   7.955305
    19  N    9.506230   9.873568   8.934882   7.442455   7.779294
    20  C    8.421967   8.810946   7.970762   6.446473   6.563630
    21  N    8.497875   8.859615   8.157278   6.615933   5.511624
    22  N    8.178423   8.510027   8.085803   6.628648   3.733877
    23  C    7.794089   8.041191   7.789609   6.455564   2.431682
    24  C    6.824182   6.890528   6.642063   5.400649   1.396198
    25  H   10.116861  10.491037   9.425406   8.067694   9.553210
    26  H    3.940346   4.692045   4.573678   3.346089   4.608654
    27  H    4.286365   4.452646   3.883250   2.413081   4.085098
    28  H    2.931583   3.518922   2.960461   2.177655   6.828353
    29  H    2.123793   2.911733   3.461956   2.945175   4.932773
    30  H    2.170018   3.525335   3.981289   3.525953   6.387343
    31  H    1.090078   2.165061   3.490589   3.977610   7.046675
    32  H    1.087718   2.127969   2.833459   3.380940   7.788523
    33  H    2.154761   1.091499   2.159904   2.922034   6.081482
    34  H    2.171875   1.090727   2.180415   3.524203   7.770249
    35  H    3.483995   2.169333   1.085141   2.194122   6.956410
    36  H    2.854691   2.149528   1.092083   2.143056   7.740740
    37  H    3.961980   3.523639   2.174347   1.091137   6.229118
    38  H    3.424741   2.883890   2.113389   1.092214   4.823108
    39  H    6.310368   6.077336   6.092626   5.257239   1.081045
    40  O    8.124615   8.080501   8.400860   7.667110   2.372766
    41  H    9.524194   9.786566   9.962923   8.915721   3.397649
    42  H    9.519203   9.906384   9.805258   8.504540   3.854734
    43  H   10.476045  10.826266   9.886192   8.384155   8.273468
    44  H    9.181583   9.512160   9.052374   7.580376   4.465817
    45  H    6.292204   6.269251   5.832524   4.519683   2.138477
    46  C    9.487253   9.465850   9.822161   9.094532   3.644238
    47  H    9.812897   9.698481  10.142249   9.558256   4.398591
    48  H    9.737047   9.877288  10.312781   9.551798   4.151334
    49  H   10.191800  10.114025  10.329680   9.515482   3.864999
                   11         12         13         14         15
    11  C    0.000000
    12  C    1.400146   0.000000
    13  C    2.423437   1.393007   0.000000
    14  N    5.310915   5.292786   4.334818   0.000000
    15  C    6.535826   6.579703   5.620863   1.292180   0.000000
    16  O    7.038305   7.271637   6.488070   2.287800   1.343443
    17  C    7.564908   7.454218   6.332405   2.350614   1.450602
    18  N    8.986821   8.876743   7.730025   3.768120   2.708466
    19  N    8.630315   8.267427   6.975097   4.006006   3.550756
    20  C    7.435241   7.134055   5.886774   2.712645   2.409953
    21  N    6.245284   5.828238   4.539698   2.343498   2.759821
    22  N    4.223965   3.697721   2.412628   2.496435   3.644500
    23  C    2.815855   2.422145   1.391108   3.086536   4.362229
    24  C    2.420252   2.778566   2.401517   3.108534   4.290732
    25  H   10.509134  10.243814   8.984592   5.527429   4.665196
    26  H    5.580165   5.935595   5.444573   2.423569   2.583510
    27  H    5.340997   5.890586   5.403155   2.294131   2.451293
    28  H    7.998915   8.567960   8.106148   4.426324   3.748379
    29  H    5.852019   6.605647   6.575434   4.514076   4.700408
    30  H    7.265175   7.811206   7.581347   4.843128   4.664115
    31  H    7.874550   8.749780   8.879902   6.818018   6.780689
    32  H    8.793841   9.593988   9.499500   6.662047   6.299411
    33  H    7.099570   8.212012   8.429172   6.612754   6.688046
    34  H    8.812314   9.879862  10.015294   7.714532   7.532971
    35  H    8.215706   9.274659   9.243882   6.705670   6.468070
    36  H    8.990473   9.901365   9.717907   6.595556   6.095859
    37  H    7.581307   8.343576   7.950555   4.626084   4.142962
    38  H    6.138057   7.054638   6.893288   4.399556   4.400148
    39  H    2.148252   3.390711   3.862072   4.808255   5.807025
    40  O    1.384051   2.454097   3.712770   6.550557   7.730381
    41  H    2.168510   1.078542   2.125821   6.258916   7.547756
    42  H    3.388236   2.131275   1.073974   4.807393   6.049146
    43  H    9.030360   8.552956   7.216499   4.776834   4.483835
    44  H    4.767396   4.019169   2.651572   3.349113   4.373260
    45  H    3.389614   3.857798   3.385537   2.605696   3.608083
    46  C    2.407831   2.860689   4.238342   7.705424   8.934008
    47  H    3.314809   3.935368   5.310268   8.595990   9.791347
    48  H    2.800335   2.852893   4.215935   7.864248   9.110733
    49  H    2.672215   2.866071   4.122286   7.851159   9.100779
                   16         17         18         19         20
    16  O    0.000000
    17  C    2.440682   0.000000
    18  N    3.257394   1.434634   0.000000
    19  N    4.642198   2.201574   2.129997   0.000000
    20  C    3.640958   1.339404   2.139580   1.299752   0.000000
    21  N    4.102861   2.391093   3.516628   2.439895   1.424205
    22  N    4.782399   4.053239   5.401728   4.573636   3.484819
    23  C    5.259890   5.094863   6.501672   5.892490   4.741567
    24  C    4.929705   5.250874   6.648149   6.386241   5.177284
    25  H    5.342231   3.236782   2.086771   2.088516   3.111496
    26  H    2.073644   4.016388   5.140983   6.088727   4.876949
    27  H    2.184396   3.767999   4.890641   5.736073   4.554899
    28  H    2.443683   4.777769   5.261706   6.943455   6.027610
    29  H    3.903829   6.127418   7.146961   8.241185   7.036615
    30  H    3.598197   5.961970   6.753838   8.136257   7.041051
    31  H    5.721411   8.126540   8.926635  10.311003   9.183256
    32  H    5.059340   7.486002   8.045866   9.679478   8.680468
    33  H    5.815286   7.997167   8.858251  10.064503   8.939053
    34  H    6.451755   8.743876   9.386577  10.862614   9.832655
    35  H    5.592539   7.492623   8.077405   9.414316   8.481984
    36  H    4.976445   7.063979   7.466535   9.091563   8.224505
    37  H    3.344613   5.013260   5.541479   6.914612   6.044125
    38  H    3.781781   5.568533   6.446756   7.497733   6.427472
    39  H    6.048024   6.952020   8.290121   8.316715   7.101275
    40  O    8.096367   8.832334  10.246911   9.978468   8.772392
    41  H    8.250182   8.386856   9.801671   9.098790   8.004834
    42  H    7.019832   6.588454   7.931698   6.964004   5.983660
    43  H    5.630499   3.194812   3.098179   1.022034   2.104904
    44  H    5.598753   4.505992   5.738785   4.545050   3.663001
    45  H    4.178333   4.583725   5.924729   5.868533   4.666372
    46  C    9.388351   9.961918  11.385827  10.936543   9.774962
    47  H   10.159785  10.866905  12.283993  11.910124  10.736596
    48  H    9.576193  10.137849  11.571650  11.098092   9.934218
    49  H    9.682672  10.009824  11.416700  10.786712   9.692076
                   21         22         23         24         25
    21  N    0.000000
    22  N    2.134046   0.000000
    23  C    3.468789   1.408558   0.000000
    24  C    4.121603   2.462218   1.401709   0.000000
    25  H    4.457889   6.577729   7.845664   8.185922   0.000000
    26  H    4.748966   4.477930   4.439280   3.948596   7.176483
    27  H    4.422282   4.245227   4.171525   3.342204   6.856994
    28  H    6.471389   6.835825   6.950868   6.235406   7.286261
    29  H    6.850443   6.239752   5.769767   4.887159   9.221668
    30  H    7.127835   6.912568   6.737187   6.097107   8.822892
    31  H    9.157844   8.650334   8.150354   7.203471  11.006515
    32  H    8.920332   8.822717   8.572892   7.668097  10.073735
    33  H    8.817672   8.224975   7.594779   6.372204  10.873957
    34  H    9.926341   9.599351   9.112944   7.941727  11.377558
    35  H    8.626227   8.510467   8.151938   6.918650   9.919626
    36  H    8.584922   8.740328   8.577144   7.505258   9.342189
    37  H    6.372061   6.677299   6.679743   5.693787   7.383566
    38  H    6.374970   6.105904   5.761494   4.586223   8.368370
    39  H    6.185580   4.607120   3.407332   2.148489   9.968597
    40  O    7.611854   5.607076   4.198670   3.661165  11.825179
    41  H    6.664762   4.537673   3.382673   3.856547  11.105910
    42  H    4.600517   2.631443   2.142103   3.380591   9.010374
    43  H    2.835455   4.880430   6.247336   6.880631   2.452992
    44  H    2.242348   1.010477   2.078221   3.285393   6.621682
    45  H    3.833727   2.713349   2.158353   1.079360   7.528409
    46  C    8.522327   6.431653   5.058654   4.803477  12.863419
    47  H    9.514468   7.449395   6.059911   5.664367  13.806552
    48  H    8.662448   6.539524   5.221593   5.182080  13.043738
    49  H    8.385485   6.306713   4.997069   4.873020  12.762294
                   26         27         28         29         30
    26  H    0.000000
    27  H    1.765699   0.000000
    28  H    2.834180   2.956616   0.000000
    29  H    2.259581   2.877464   3.045978   0.000000
    30  H    2.464262   3.619433   2.419370   1.744803   0.000000
    31  H    4.472532   5.029251   3.910104   2.411475   2.522842
    32  H    4.447279   4.864453   2.805724   2.998939   2.413728
    33  H    4.755536   4.418145   4.197160   2.827212   3.920541
    34  H    5.737992   5.526855   4.324337   3.893295   4.321549
    35  H    5.400104   4.447600   3.945439   4.296671   5.018610
    36  H    5.060797   4.502518   2.852340   4.125320   4.212022
    37  H    3.865064   2.678694   2.459151   3.940694   4.336958
    38  H    3.347680   2.123902   3.075721   2.890575   3.952020
    39  H    4.709236   3.997370   6.587132   4.607415   6.210828
    40  O    6.491472   6.265634   8.756903   6.320501   7.849640
    41  H    6.860127   6.930872   9.543759   7.462752   8.638302
    42  H    6.109704   6.196454   8.810759   7.413928   8.274063
    43  H    6.973702   6.608001   7.953465   9.140436   9.087434
    44  H    5.439104   5.211636   7.754021   7.243038   7.870849
    45  H    3.489823   2.492206   5.446769   4.511842   5.666383
    46  C    7.790797   7.629822  10.148314   7.676556   9.159637
    47  H    8.506765   8.307818  10.725536   8.140224   9.686142
    48  H    7.905702   7.975032  10.403119   7.864367   9.227932
    49  H    8.248427   7.944236  10.621557   8.343404   9.821758
                   31         32         33         34         35
    31  H    0.000000
    32  H    1.740122   0.000000
    33  H    2.452210   3.025006   0.000000
    34  H    2.518297   2.419457   1.746709   0.000000
    35  H    4.306476   3.813715   2.456478   2.519803   0.000000
    36  H    3.842745   2.707054   3.039480   2.437479   1.722606
    37  H    4.999885   4.180948   3.908449   4.329721   2.543457
    38  H    4.254293   4.078190   2.790618   3.869087   2.418637
    39  H    6.526540   7.308734   5.288503   7.006379   6.175429
    40  O    8.052773   9.170028   7.192767   8.928265   8.526472
    41  H    9.523024  10.461239   9.078263  10.753367  10.262343
    42  H    9.728071  10.307327   9.412255  10.963568  10.205825
    43  H   11.262984  10.677474  10.974749  11.826072  10.329402
    44  H    9.652797   9.809511   9.224612  10.601072   9.453118
    45  H    6.812575   7.072475   5.850456   7.327795   6.090861
    46  C    9.352895  10.534975   8.556282  10.285632   9.928255
    47  H    9.608956  10.884072   8.726008  10.436979  10.178405
    48  H    9.536089  10.761487   9.009689  10.708902  10.517309
    49  H   10.145475  11.227096   9.221915  10.965850  10.387389
                   36         37         38         39         40
    36  H    0.000000
    37  H    2.432291   0.000000
    38  H    3.001151   1.741474   0.000000
    39  H    7.118106   5.782005   4.240814   0.000000
    40  O    9.437569   8.287264   6.700404   2.585190   0.000000
    41  H   10.893726   9.398725   8.079006   4.300232   2.740423
    42  H   10.596086   8.778835   7.825574   4.935605   4.579890
    43  H   10.070632   7.850040   8.378907   8.878787  10.396204
    44  H    9.689590   7.565877   7.062366   5.392040   6.138573
    45  H    6.650434   4.702263   3.738919   2.455037   4.510354
    46  C   10.862474   9.700065   8.124691   3.961584   1.429407
    47  H   11.206106  10.207369   8.567750   4.489307   2.068997
    48  H   11.323094  10.196133   8.643150   4.613536   2.094500
    49  H   11.366696  10.020515   8.519821   4.282869   2.097114
                   41         42         43         44         45
    41  H    0.000000
    42  H    2.420993   0.000000
    43  H    9.318587   7.082037   0.000000
    44  H    4.703832   2.501670   4.637665   0.000000
    45  H    4.935854   4.283116   6.457635   3.604073   0.000000
    46  C    2.598480   4.872564  11.259510   6.790269   5.737675
    47  H    3.670459   5.962275  12.257573   7.838733   6.523489
    48  H    2.281139   4.687859  11.404910   6.854862   6.181688
    49  H    2.544369   4.659551  11.024095   6.532011   5.817967
                   46         47         48         49
    46  C    0.000000
    47  H    1.089876   0.000000
    48  H    1.090549   1.755533   0.000000
    49  H    1.091394   1.754241   1.776268   0.000000
 Stoichiometry    C19H23N5O2
 Framework group  C1[X(C19H23N5O2)]
 Deg. of freedom   141
 Full point group                 C1      NOp   1
 Largest Abelian subgroup         C1      NOp   1
 Largest concise Abelian subgroup C1      NOp   1
                         Standard orientation:                         
 ---------------------------------------------------------------------
 Center     Atomic      Atomic             Coordinates (Angstroms)
 Number     Number       Type             X           Y           Z
 ---------------------------------------------------------------------
      1          6           0        0.184759   -2.351697   -0.153640
      2          6           0        4.426287   -3.497959    0.368034
      3          6           0        1.426621    1.261976   -0.473861
      4          6           0        1.942775    2.714736   -0.325307
      5          6           0        1.148674    3.575340   -1.329698
      6          6           0        1.261749    5.087790   -1.073470
      7          6           0        1.034553    5.536002    0.377535
      8          6           0        1.862233    4.690900    1.372068
      9          6           0        1.747575    3.167530    1.156573
     10          6           0       -3.201180    0.244691    0.732621
     11          6           0       -4.412043   -0.132427    0.154174
     12          6           0       -4.496294   -1.365814   -0.503145
     13          6           0       -3.388377   -2.207918   -0.565198
     14          7           0        0.786499   -1.049212   -0.429342
     15          6           0        2.061765   -0.843793   -0.394278
     16          8           0        2.561893    0.377155   -0.647251
     17          6           0        2.921781   -1.971735   -0.090362
     18          7           0        4.315540   -2.273572    0.066178
     19          7           0        3.255228   -4.084448    0.431354
     20          6           0        2.374601   -3.169578    0.154114
     21          7           0        0.958628   -3.319687    0.124999
     22          7           0       -1.066202   -2.695131   -0.128280
     23          6           0       -2.170442   -1.828669   -0.010234
     24          6           0       -2.090943   -0.598534    0.657027
     25          1           0        5.340352   -4.029383    0.536819
     26          1           0        0.792803    1.186344   -1.365256
     27          1           0        0.781325    1.090609    0.397809
     28          1           0        3.001397    2.780083   -0.581240
     29          1           0        0.085638    3.330276   -1.269438
     30          1           0        1.453446    3.345352   -2.352588
     31          1           0        0.598940    5.638867   -1.740754
     32          1           0        2.273636    5.379795   -1.345405
     33          1           0       -0.023881    5.428985    0.621740
     34          1           0        1.269951    6.595046    0.490229
     35          1           0        1.620090    4.977463    2.390291
     36          1           0        2.912893    4.963533    1.251943
     37          1           0        2.445911    2.642740    1.810411
     38          1           0        0.749740    2.899370    1.510618
     39          1           0       -3.122596    1.189900    1.251334
     40          8           0       -5.473648    0.747834    0.271364
     41          1           0       -5.416025   -1.702171   -0.955043
     42          1           0       -3.487093   -3.162244   -1.047834
     43          1           0        3.126532   -5.083847    0.602213
     44          1           0       -1.244451   -3.688166   -0.071968
     45          1           0       -1.166214   -0.287312    1.118583
     46          6           0       -6.793654    0.220392    0.121056
     47          1           0       -7.525718    0.977310    0.402104
     48          1           0       -7.000577   -0.061767   -0.911837
     49          1           0       -6.962536   -0.643739    0.765957
 ---------------------------------------------------------------------
 Rotational constants (GHZ):           0.1756527           0.1434159           0.0828667
 Leave Link  202 at Thu Jan 30 14:39:54 2025, MaxMem=   104857600 cpu:               0.0 elap:               0.0
 (Enter /home/pb777/GAUSSIAN/g16/l301.exe)
 Standard basis: 6-31G(d) (6D, 7F)
 Ernie: Thresh=  0.10000D-02 Tol=  0.10000D-05 Strict=F.
 There are   436 symmetry adapted cartesian basis functions of A   symmetry.
 There are   436 symmetry adapted basis functions of A   symmetry.
   436 basis functions,   820 primitive gaussians,   436 cartesian basis functions
    94 alpha electrons       94 beta electrons
       nuclear repulsion energy      2243.9018780936 Hartrees.
 IExCor=    0 DFT=F Ex=HF Corr=None ExCW=0 ScaHFX=  1.000000
 ScaDFX=  1.000000  1.000000  1.000000  1.000000 ScalE2=  1.000000  1.000000
 IRadAn=      5 IRanWt=     -1 IRanGd=            0 ICorTp=0 IEmpDi=  4
 NAtoms=   49 NActive=   49 NUniq=   49 SFac= 1.00D+00 NAtFMM=   60 NAOKFM=F Big=F
 Integral buffers will be    131072 words long.
 Raffenetti 1 integral format.
 Two-electron integral symmetry is turned on.
 Leave Link  301 at Thu Jan 30 14:39:54 2025, MaxMem=   104857600 cpu:               0.0 elap:               0.0
 (Enter /home/pb777/GAUSSIAN/g16/l302.exe)
 NPDir=0 NMtPBC=     1 NCelOv=     1 NCel=       1 NClECP=     1 NCelD=      1
         NCelK=      1 NCelE2=     1 NClLst=     1 CellRange=     0.0.
 One-electron integrals computed using PRISM.
 One-electron integral symmetry used in STVInt
 NBasis=   436 RedAO= T EigKep=  4.04D-04  NBF=   436
 NBsUse=   436 1.00D-06 EigRej= -1.00D+00 NBFU=   436
 Leave Link  302 at Thu Jan 30 14:39:54 2025, MaxMem=   104857600 cpu:               0.2 elap:               0.2
 (Enter /home/pb777/GAUSSIAN/g16/l303.exe)
 DipDrv:  MaxL=1.
 Leave Link  303 at Thu Jan 30 14:39:54 2025, MaxMem=   104857600 cpu:               0.0 elap:               0.0
 (Enter /home/pb777/GAUSSIAN/g16/l401.exe)
 ExpMin= 1.61D-01 ExpMax= 5.48D+03 ExpMxC= 8.25D+02 IAcc=3 IRadAn=         5 AccDes= 0.00D+00
 Harris functional with IExCor=  205 and IRadAn=       5 diagonalized for initial guess.
 HarFok:  IExCor=  205 AccDes= 0.00D+00 IRadAn=         5 IDoV= 1 UseB2=F ITyADJ=14
 ICtDFT=  3500011 ScaDFX=  1.000000  1.000000  1.000000  1.000000
 FoFCou: FMM=F IPFlag=           0 FMFlag=      100000 FMFlg1=           0
         NFxFlg=           0 DoJE=T BraDBF=F KetDBF=T FulRan=T
         wScrn=  0.000000 ICntrl=       500 IOpCl=  0 I1Cent=   200000004 NGrid=           0
         NMat0=    1 NMatS0=      1 NMatT0=    0 NMatD0=    1 NMtDS0=    0 NMtDT0=    0
 Petite list used in FoFCou.
 Harris En= -1156.27875725538    
 JPrj=0 DoOrth=F DoCkMO=F.
 Leave Link  401 at Thu Jan 30 14:40:02 2025, MaxMem=   104857600 cpu:               8.0 elap:               8.0
 (Enter /home/pb777/GAUSSIAN/g16/l502.exe)
 Integral symmetry usage will be decided dynamically.
 Closed shell SCF:
 Using DIIS extrapolation, IDIIS=  1040.
 NGot=   104857600 LenX=   104469899 LenY=   104279362
 Requested convergence on RMS density matrix=1.00D-08 within 128 cycles.
 Requested convergence on MAX density matrix=1.00D-06.
 Requested convergence on             energy=1.00D-06.
 No special actions if energy rises.
 Fock matrices will be formed incrementally for  20 cycles.
 Integral accuracy reduced to 1.0D-05 until final iterations.

 Cycle   1  Pass 0  IDiag  1:
 FoFJK:  IHMeth= 1 ICntrl=       0 DoSepK=F KAlg= 0 I1Cent=           0 FoldK=F
 IRaf= 650000000 NMat=       1 IRICut=       1 DoRegI=T DoRafI=F ISym2E= 0 IDoP0=0 IntGTp=1.
 FoFCou: FMM=F IPFlag=           0 FMFlag=      100000 FMFlg1=           0
         NFxFlg=           0 DoJE=F BraDBF=F KetDBF=F FulRan=T
         wScrn=  0.000000 ICntrl=         0 IOpCl=  0 I1Cent=           0 NGrid=           0
         NMat0=    1 NMatS0=      1 NMatT0=    0 NMatD0=    1 NMtDS0=    0 NMtDT0=    0
 Symmetry not used in FoFCou.
 E= -1153.80241377016    
 DIIS: error= 6.01D-02 at cycle   1 NSaved=   1.
 NSaved= 1 IEnMin= 1 EnMin= -1153.80241377016     IErMin= 1 ErrMin= 6.01D-02
 ErrMax= 6.01D-02  0.00D+00 EMaxC= 1.00D-01 BMatC= 1.65D+00 BMatP= 1.65D+00
 IDIUse=3 WtCom= 3.99D-01 WtEn= 6.01D-01
 Coeff-Com:  0.100D+01
 Coeff-En:   0.100D+01
 Coeff:      0.100D+01
 Gap=     0.463 Goal=   None    Shift=    0.000
 GapD=    0.463 DampG=2.000 DampE=0.500 DampFc=1.0000 IDamp=-1.
 RMSDP=3.53D-03 MaxDP=1.37D-01              OVMax= 1.35D-01

 Cycle   2  Pass 0  IDiag  1:
 RMSU=  3.43D-03    CP:  9.47D-01
 E= -1154.64925819292     Delta-E=       -0.846844422762 Rises=F Damp=F
 DIIS: error= 1.29D-02 at cycle   2 NSaved=   2.
 NSaved= 2 IEnMin= 2 EnMin= -1154.64925819292     IErMin= 2 ErrMin= 1.29D-02
 ErrMax= 1.29D-02  0.00D+00 EMaxC= 1.00D-01 BMatC= 1.49D-01 BMatP= 1.65D+00
 IDIUse=3 WtCom= 8.71D-01 WtEn= 1.29D-01
 Coeff-Com:  0.138D+00 0.862D+00
 Coeff-En:   0.000D+00 0.100D+01
 Coeff:      0.120D+00 0.880D+00
 Gap=     0.455 Goal=   None    Shift=    0.000
 RMSDP=1.19D-03 MaxDP=3.41D-02 DE=-8.47D-01 OVMax= 5.44D-02

 Cycle   3  Pass 0  IDiag  1:
 RMSU=  1.04D-03    CP:  9.55D-01  8.35D-01
 E= -1154.76639703055     Delta-E=       -0.117138837627 Rises=F Damp=F
 DIIS: error= 4.15D-03 at cycle   3 NSaved=   3.
 NSaved= 3 IEnMin= 3 EnMin= -1154.76639703055     IErMin= 3 ErrMin= 4.15D-03
 ErrMax= 4.15D-03  0.00D+00 EMaxC= 1.00D-01 BMatC= 1.66D-02 BMatP= 1.49D-01
 IDIUse=3 WtCom= 9.58D-01 WtEn= 4.15D-02
 Coeff-Com: -0.220D-01 0.215D+00 0.807D+00
 Coeff-En:   0.000D+00 0.000D+00 0.100D+01
 Coeff:     -0.211D-01 0.206D+00 0.815D+00
 Gap=     0.411 Goal=   None    Shift=    0.000
 RMSDP=3.08D-04 MaxDP=1.62D-02 DE=-1.17D-01 OVMax= 1.84D-02

 Cycle   4  Pass 0  IDiag  1:
 RMSU=  1.88D-04    CP:  9.52D-01  8.95D-01  8.77D-01
 E= -1154.78211546256     Delta-E=       -0.015718432012 Rises=F Damp=F
 DIIS: error= 5.76D-04 at cycle   4 NSaved=   4.
 NSaved= 4 IEnMin= 4 EnMin= -1154.78211546256     IErMin= 4 ErrMin= 5.76D-04
 ErrMax= 5.76D-04  0.00D+00 EMaxC= 1.00D-01 BMatC= 6.00D-04 BMatP= 1.66D-02
 IDIUse=3 WtCom= 9.94D-01 WtEn= 5.76D-03
 Coeff-Com: -0.735D-02 0.255D-01 0.184D+00 0.798D+00
 Coeff-En:   0.000D+00 0.000D+00 0.000D+00 0.100D+01
 Coeff:     -0.731D-02 0.254D-01 0.183D+00 0.799D+00
 Gap=     0.409 Goal=   None    Shift=    0.000
 RMSDP=7.28D-05 MaxDP=3.35D-03 DE=-1.57D-02 OVMax= 5.26D-03

 Cycle   5  Pass 0  IDiag  1:
 RMSU=  5.53D-05    CP:  9.52D-01  8.96D-01  9.21D-01  9.46D-01
 E= -1154.78275919600     Delta-E=       -0.000643733438 Rises=F Damp=F
 DIIS: error= 3.61D-04 at cycle   5 NSaved=   5.
 NSaved= 5 IEnMin= 5 EnMin= -1154.78275919600     IErMin= 5 ErrMin= 3.61D-04
 ErrMax= 3.61D-04  0.00D+00 EMaxC= 1.00D-01 BMatC= 5.14D-05 BMatP= 6.00D-04
 IDIUse=3 WtCom= 9.96D-01 WtEn= 3.61D-03
 Coeff-Com:  0.155D-02-0.189D-01-0.653D-01 0.413D-01 0.104D+01
 Coeff-En:   0.000D+00 0.000D+00 0.000D+00 0.000D+00 0.100D+01
 Coeff:      0.155D-02-0.188D-01-0.651D-01 0.411D-01 0.104D+01
 Gap=     0.410 Goal=   None    Shift=    0.000
 RMSDP=3.34D-05 MaxDP=1.84D-03 DE=-6.44D-04 OVMax= 3.35D-03

 Cycle   6  Pass 0  IDiag  1:
 RMSU=  1.91D-05    CP:  9.52D-01  8.97D-01  9.36D-01  1.05D+00  1.18D+00
 E= -1154.78287338995     Delta-E=       -0.000114193957 Rises=F Damp=F
 DIIS: error= 1.57D-04 at cycle   6 NSaved=   6.
 NSaved= 6 IEnMin= 6 EnMin= -1154.78287338995     IErMin= 6 ErrMin= 1.57D-04
 ErrMax= 1.57D-04  0.00D+00 EMaxC= 1.00D-01 BMatC= 9.78D-06 BMatP= 5.14D-05
 IDIUse=3 WtCom= 9.98D-01 WtEn= 1.57D-03
 Coeff-Com:  0.104D-02-0.695D-02-0.329D-01-0.847D-01 0.242D+00 0.882D+00
 Coeff-En:   0.000D+00 0.000D+00 0.000D+00 0.000D+00 0.000D+00 0.100D+01
 Coeff:      0.104D-02-0.693D-02-0.329D-01-0.845D-01 0.241D+00 0.882D+00
 Gap=     0.410 Goal=   None    Shift=    0.000
 RMSDP=1.26D-05 MaxDP=5.59D-04 DE=-1.14D-04 OVMax= 1.40D-03

 Cycle   7  Pass 0  IDiag  1:
 RMSU=  7.32D-06    CP:  9.52D-01  8.97D-01  9.39D-01  1.08D+00  1.34D+00
                    CP:  1.04D+00
 E= -1154.78289171406     Delta-E=       -0.000018324102 Rises=F Damp=F
 DIIS: error= 5.23D-05 at cycle   7 NSaved=   7.
 NSaved= 7 IEnMin= 7 EnMin= -1154.78289171406     IErMin= 7 ErrMin= 5.23D-05
 ErrMax= 5.23D-05  0.00D+00 EMaxC= 1.00D-01 BMatC= 1.15D-06 BMatP= 9.78D-06
 IDIUse=1 WtCom= 1.00D+00 WtEn= 0.00D+00
 Coeff-Com: -0.946D-04 0.192D-02 0.596D-02-0.194D-01-0.106D+00 0.622D-01
 Coeff-Com:  0.106D+01
 Coeff:     -0.946D-04 0.192D-02 0.596D-02-0.194D-01-0.106D+00 0.622D-01
 Coeff:      0.106D+01
 Gap=     0.410 Goal=   None    Shift=    0.000
 RMSDP=5.54D-06 MaxDP=3.29D-04 DE=-1.83D-05 OVMax= 6.49D-04

 Initial convergence to 1.0D-05 achieved.  Increase integral accuracy.
 Cycle   8  Pass 1  IDiag  1:
 E= -1154.78289594585     Delta-E=       -0.000004231793 Rises=F Damp=F
 DIIS: error= 6.91D-05 at cycle   1 NSaved=   1.
 NSaved= 1 IEnMin= 1 EnMin= -1154.78289594585     IErMin= 1 ErrMin= 6.91D-05
 ErrMax= 6.91D-05  0.00D+00 EMaxC= 1.00D-01 BMatC= 1.25D-06 BMatP= 1.25D-06
 IDIUse=1 WtCom= 1.00D+00 WtEn= 0.00D+00
 Coeff-Com:  0.100D+01
 Coeff:      0.100D+01
 Gap=     0.410 Goal=   None    Shift=    0.000
 RMSDP=5.54D-06 MaxDP=3.29D-04 DE=-4.23D-06 OVMax= 2.75D-04

 Cycle   9  Pass 1  IDiag  1:
 RMSU=  2.47D-05    CP:  1.00D+00
 E= -1154.78289718287     Delta-E=       -0.000001237018 Rises=F Damp=F
 DIIS: error= 1.59D-05 at cycle   2 NSaved=   2.
 NSaved= 2 IEnMin= 2 EnMin= -1154.78289718287     IErMin= 2 ErrMin= 1.59D-05
 ErrMax= 1.59D-05  0.00D+00 EMaxC= 1.00D-01 BMatC= 9.15D-08 BMatP= 1.25D-06
 IDIUse=1 WtCom= 1.00D+00 WtEn= 0.00D+00
 Coeff-Com:  0.370D-01 0.963D+00
 Coeff:      0.370D-01 0.963D+00
 Gap=     0.410 Goal=   None    Shift=    0.000
 RMSDP=1.61D-06 MaxDP=6.63D-05 DE=-1.24D-06 OVMax= 1.69D-04

 Cycle  10  Pass 1  IDiag  1:
 RMSU=  1.21D-06    CP:  1.00D+00  1.04D+00
 E= -1154.78289735405     Delta-E=       -0.000000171183 Rises=F Damp=F
 DIIS: error= 1.33D-05 at cycle   3 NSaved=   3.
 NSaved= 3 IEnMin= 3 EnMin= -1154.78289735405     IErMin= 3 ErrMin= 1.33D-05
 ErrMax= 1.33D-05  0.00D+00 EMaxC= 1.00D-01 BMatC= 4.53D-08 BMatP= 9.15D-08
 IDIUse=1 WtCom= 1.00D+00 WtEn= 0.00D+00
 Coeff-Com: -0.455D-01 0.358D+00 0.687D+00
 Coeff:     -0.455D-01 0.358D+00 0.687D+00
 Gap=     0.410 Goal=   None    Shift=    0.000
 RMSDP=6.51D-07 MaxDP=4.47D-05 DE=-1.71D-07 OVMax= 8.88D-05

 Cycle  11  Pass 1  IDiag  1:
 RMSU=  6.23D-07    CP:  1.00D+00  1.05D+00  9.73D-01
 E= -1154.78289742935     Delta-E=       -0.000000075298 Rises=F Damp=F
 DIIS: error= 7.20D-06 at cycle   4 NSaved=   4.
 NSaved= 4 IEnMin= 4 EnMin= -1154.78289742935     IErMin= 4 ErrMin= 7.20D-06
 ErrMax= 7.20D-06  0.00D+00 EMaxC= 1.00D-01 BMatC= 7.85D-09 BMatP= 4.53D-08
 IDIUse=1 WtCom= 1.00D+00 WtEn= 0.00D+00
 Coeff-Com:  0.179D-01-0.496D+00-0.454D+00 0.193D+01
 Coeff:      0.179D-01-0.496D+00-0.454D+00 0.193D+01
 Gap=     0.410 Goal=   None    Shift=    0.000
 RMSDP=8.66D-07 MaxDP=5.60D-05 DE=-7.53D-08 OVMax= 1.34D-04

 Cycle  12  Pass 1  IDiag  1:
 RMSU=  2.48D-07    CP:  1.00D+00  1.05D+00  1.43D+00  1.99D+00
 E= -1154.78289747751     Delta-E=       -0.000000048162 Rises=F Damp=F
 DIIS: error= 9.06D-07 at cycle   5 NSaved=   5.
 NSaved= 5 IEnMin= 5 EnMin= -1154.78289747751     IErMin= 5 ErrMin= 9.06D-07
 ErrMax= 9.06D-07  0.00D+00 EMaxC= 1.00D-01 BMatC= 5.90D-10 BMatP= 7.85D-09
 IDIUse=1 WtCom= 1.00D+00 WtEn= 0.00D+00
 Coeff-Com:  0.766D-02-0.153D+00-0.173D+00 0.481D+00 0.837D+00
 Coeff:      0.766D-02-0.153D+00-0.173D+00 0.481D+00 0.837D+00
 Gap=     0.410 Goal=   None    Shift=    0.000
 RMSDP=1.45D-07 MaxDP=7.35D-06 DE=-4.82D-08 OVMax= 2.03D-05

 Cycle  13  Pass 1  IDiag  1:
 RMSU=  6.40D-08    CP:  1.00D+00  1.05D+00  1.49D+00  2.15D+00  1.20D+00
 E= -1154.78289747931     Delta-E=       -0.000000001803 Rises=F Damp=F
 DIIS: error= 4.41D-07 at cycle   6 NSaved=   6.
 NSaved= 6 IEnMin= 6 EnMin= -1154.78289747931     IErMin= 6 ErrMin= 4.41D-07
 ErrMax= 4.41D-07  0.00D+00 EMaxC= 1.00D-01 BMatC= 9.26D-11 BMatP= 5.90D-10
 IDIUse=1 WtCom= 1.00D+00 WtEn= 0.00D+00
 Coeff-Com: -0.469D-02 0.125D+00 0.113D+00-0.458D+00-0.804D-01 0.130D+01
 Coeff:     -0.469D-02 0.125D+00 0.113D+00-0.458D+00-0.804D-01 0.130D+01
 Gap=     0.410 Goal=   None    Shift=    0.000
 RMSDP=7.39D-08 MaxDP=3.30D-06 DE=-1.80D-09 OVMax= 1.08D-05

 Cycle  14  Pass 1  IDiag  1:
 RMSU=  3.99D-08    CP:  1.00D+00  1.05D+00  1.50D+00  2.20D+00  1.38D+00
                    CP:  1.42D+00
 E= -1154.78289747970     Delta-E=       -0.000000000383 Rises=F Damp=F
 DIIS: error= 1.38D-07 at cycle   7 NSaved=   7.
 NSaved= 7 IEnMin= 7 EnMin= -1154.78289747970     IErMin= 7 ErrMin= 1.38D-07
 ErrMax= 1.38D-07  0.00D+00 EMaxC= 1.00D-01 BMatC= 1.00D-11 BMatP= 9.26D-11
 IDIUse=1 WtCom= 1.00D+00 WtEn= 0.00D+00
 Coeff-Com: -0.129D-02 0.281D-01 0.284D-01-0.911D-01-0.101D+00 0.753D-01
 Coeff-Com:  0.106D+01
 Coeff:     -0.129D-02 0.281D-01 0.284D-01-0.911D-01-0.101D+00 0.753D-01
 Coeff:      0.106D+01
 Gap=     0.410 Goal=   None    Shift=    0.000
 RMSDP=2.23D-08 MaxDP=1.41D-06 DE=-3.83D-10 OVMax= 3.28D-06

 Cycle  15  Pass 1  IDiag  1:
 RMSU=  9.44D-09    CP:  1.00D+00  1.05D+00  1.50D+00  2.20D+00  1.41D+00
                    CP:  1.60D+00  1.33D+00
 E= -1154.78289747975     Delta-E=       -0.000000000052 Rises=F Damp=F
 DIIS: error= 4.67D-08 at cycle   8 NSaved=   8.
 NSaved= 8 IEnMin= 8 EnMin= -1154.78289747975     IErMin= 8 ErrMin= 4.67D-08
 ErrMax= 4.67D-08  0.00D+00 EMaxC= 1.00D-01 BMatC= 1.98D-12 BMatP= 1.00D-11
 IDIUse=1 WtCom= 1.00D+00 WtEn= 0.00D+00
 Coeff-Com:  0.494D-03-0.145D-01-0.129D-01 0.544D-01-0.456D-02-0.206D+00
 Coeff-Com:  0.234D+00 0.949D+00
 Coeff:      0.494D-03-0.145D-01-0.129D-01 0.544D-01-0.456D-02-0.206D+00
 Coeff:      0.234D+00 0.949D+00
 Gap=     0.410 Goal=   None    Shift=    0.000
 RMSDP=9.14D-09 MaxDP=3.96D-07 DE=-5.18D-11 OVMax= 1.28D-06

 SCF Done:  E(RHF) =  -1154.78289748     A.U. after   15 cycles
            NFock= 15  Conv=0.91D-08     -V/T= 2.0016
 KE= 1.152980006871D+03 PE=-7.187072561209D+03 EE= 2.635407778765D+03
 Leave Link  502 at Thu Jan 30 14:41:40 2025, MaxMem=   104857600 cpu:              96.9 elap:              97.4
 (Enter /home/pb777/GAUSSIAN/g16/l801.exe)
 Range of M.O.s used for correlation:     1   436
 NBasis=   436 NAE=    94 NBE=    94 NFC=     0 NFV=     0
 NROrb=    436 NOA=    94 NOB=    94 NVA=   342 NVB=   342
 Leave Link  801 at Thu Jan 30 14:41:40 2025, MaxMem=   104857600 cpu:               0.0 elap:               0.0
 (Enter /home/pb777/GAUSSIAN/g16/l1101.exe)
 Using compressed storage, NAtomX=    49.
 Will process     50 centers per pass.
 Leave Link 1101 at Thu Jan 30 14:41:40 2025, MaxMem=   104857600 cpu:               0.4 elap:               0.4
 (Enter /home/pb777/GAUSSIAN/g16/l1102.exe)
 Symmetrizing basis deriv contribution to polar:
 IMax=3 JMax=2 DiffMx= 0.00D+00
 Leave Link 1102 at Thu Jan 30 14:41:40 2025, MaxMem=   104857600 cpu:               0.1 elap:               0.0
 (Enter /home/pb777/GAUSSIAN/g16/l1110.exe)
 Forming Gx(P) for the SCF density, NAtomX=    49.
 Integral derivatives from FoFJK, PRISM(SPDF).
 Do as many integral derivatives as possible in FoFJK.
 G2DrvN: MDV=     104853936.
 G2DrvN: will do    50 centers at a time, making    1 passes.
 Calling FoFCou, ICntrl=  3107 FMM=F I1Cent=   0 AccDes= 0.00D+00.
 FoFJK:  IHMeth= 1 ICntrl=    3107 DoSepK=F KAlg= 0 I1Cent=           0 FoldK=F
 IRaf=         0 NMat=       1 IRICut=       1 DoRegI=T DoRafI=F ISym2E= 0 IDoP0=0 IntGTp=1.
 FoFCou: FMM=F IPFlag=           0 FMFlag=      100000 FMFlg1=           0
         NFxFlg=           0 DoJE=F BraDBF=F KetDBF=F FulRan=T
         wScrn=  0.000000 ICntrl=      3107 IOpCl=  0 I1Cent=           0 NGrid=           0
         NMat0=    1 NMatS0=      1 NMatT0=    0 NMatD0=    1 NMtDS0=    0 NMtDT0=    0
 Symmetry not used in FoFCou.
 End of G2Drv F.D. properties file   721 does not exist.
 End of G2Drv F.D. properties file   722 does not exist.
 End of G2Drv F.D. properties file   788 does not exist.
 Leave Link 1110 at Thu Jan 30 14:43:15 2025, MaxMem=   104857600 cpu:              94.9 elap:              95.3
 (Enter /home/pb777/GAUSSIAN/g16/l1002.exe)
 Minotr:  Closed shell wavefunction.
          IDoAtm=1111111111111111111111111111111111111111111111111
          Direct CPHF calculation.
          Differentiating once with respect to nuclear coordinates.
          Requested convergence is 1.0D-08 RMS, and 1.0D-07 maximum.
          Secondary convergence is 1.0D-12 RMS, and 1.0D-12 maximum.
          NewPWx=T KeepS1=F KeepF1=F KeepIn=T MapXYZ=F SortEE=F KeepMc=T.
 Two-electron integrals replicated using symmetry.
          MDV=     104857600 using IRadAn=       1.
          Solving linear equations simultaneously, MaxMat=     384.
 FoF2E skips out because all densities are zero.
 FoFJK:  IHMeth= 1 ICntrl=       0 DoSepK=F KAlg= 0 I1Cent=           0 FoldK=F
 IRaf= 610000000 NMat=     147 IRICut=     367 DoRegI=T DoRafI=T ISym2E= 2 IDoP0=0 IntGTp=1.
 FoFCou: FMM=F IPFlag=           0 FMFlag=      100000 FMFlg1=           0
         NFxFlg=           0 DoJE=F BraDBF=F KetDBF=F FulRan=T
         wScrn=  0.000000 ICntrl=         0 IOpCl=  0 I1Cent=           0 NGrid=           0
         NMat0=  147 NMatS0=    147 NMatT0=    0 NMatD0=  147 NMtDS0=    0 NMtDT0=    0
 Integrals replicated using symmetry in FoFCou.
 Raff kept on since  54.52% of shell-pairs survive, threshold=   0.20 IRatSp=55.
          There are   150 degrees of freedom in the 1st order CPHF.  IDoFFX=6 NUNeed=     0.
    144 vectors produced by pass  0 Test12= 3.21D-14 1.00D-09 XBig12= 1.02D-01 7.12D-02.
 AX will form   144 AO Fock derivatives at one time.
    144 vectors produced by pass  1 Test12= 3.21D-14 1.00D-09 XBig12= 1.24D-02 2.29D-02.
    144 vectors produced by pass  2 Test12= 3.21D-14 1.00D-09 XBig12= 3.40D-04 2.96D-03.
    144 vectors produced by pass  3 Test12= 3.21D-14 1.00D-09 XBig12= 5.45D-06 3.34D-04.
    144 vectors produced by pass  4 Test12= 3.21D-14 1.00D-09 XBig12= 4.54D-08 1.57D-05.
    144 vectors produced by pass  5 Test12= 3.21D-14 1.00D-09 XBig12= 3.39D-10 1.33D-06.
    131 vectors produced by pass  6 Test12= 3.21D-14 1.00D-09 XBig12= 2.05D-12 9.09D-08.
     42 vectors produced by pass  7 Test12= 3.21D-14 1.00D-09 XBig12= 1.29D-14 6.88D-09.
[...]
 1269 Fit       0.000511
 1270 Fit       0.002548
 1271 Fit       0.000721
 1272 Fit       0.001402
 1273 Fit       0.000614
 1274 Fit      -0.000032
 1275 Fit       0.003354
 1276 Fit       0.002411
 1277 Fit       0.001691
 1278 Fit       0.001458
 1279 Fit       0.003884
 1280 Fit       0.003239
 1281 Fit       0.002423
 1282 Fit      -0.001628
 1283 Fit      -0.008300
 1284 Fit       0.003178
 1285 Fit       0.001555
 1286 Fit      -0.003107
 1287 Fit       0.004200
 1288 Fit       0.001673
 1289 Fit      -0.001533
 1290 Fit      -0.007595
 1291 Fit      -0.016164
 1292 Fit      -0.002738
 1293 Fit      -0.004877
 1294 Fit      -0.010779
 1295 Fit      -0.020664
 1296 Fit      -0.019625
 1297 Fit      -0.020762
 1298 Fit      -0.021248
 1299 Fit      -0.011705
 1300 Fit      -0.021359
 1301 Fit      -0.016839
 1302 Fit      -0.020636
 1303 Fit      -0.020496
 1304 Fit      -0.020675
 1305 Fit      -0.016530
 1306 Fit      -0.015113
 1307 Fit       0.011208
 1308 Fit       0.007000
 1309 Fit       0.016476
 1310 Fit       0.013582
 1311 Fit       0.012377
 1312 Fit       0.014301
 1313 Fit       0.012888
 1314 Fit       0.010335
 1315 Fit       0.003821
 1316 Fit       0.013169
 1317 Fit       0.009545
 1318 Fit       0.006598
 1319 Fit       0.008589
 1320 Fit       0.013676
 1321 Fit       0.013869
 1322 Fit       0.012014
 1323 Fit       0.013649
 1324 Fit       0.017864
 1325 Fit       0.011764
 1326 Fit       0.013182
 1327 Fit       0.013711
 1328 Fit       0.007069
 1329 Fit       0.006000
 1330 Fit       0.009089
 1331 Fit       0.013329
 1332 Fit       0.023762
 1333 Fit       0.029804
 1334 Fit       0.034039
 1335 Fit       0.037845
 1336 Fit       0.020581
 1337 Fit       0.029260
 1338 Fit       0.033257
 1339 Fit       0.033939
 1340 Fit       0.030014
 1341 Fit       0.015495
 1342 Fit       0.027278
 1343 Fit       0.030162
 1344 Fit       0.024005
 1345 Fit       0.022201
 1346 Fit       0.008745
 1347 Fit      -0.002577
 1348 Fit       0.013960
 1349 Fit       0.000633
 1350 Fit       0.017489
 1351 Fit       0.006246
 1352 Fit      -0.000109
 1353 Fit       0.012674
 1354 Fit       0.002478
 1355 Fit       0.005809
 1356 Fit      -0.007754
 1357 Fit       0.001414
 1358 Fit       0.007097
 1359 Fit       0.010809
 1360 Fit      -0.008333
 1361 Fit       0.012874
 1362 Fit      -0.006190
 1363 Fit       0.000482
 1364 Fit       0.013706
 1365 Fit       0.015011
 1366 Fit       0.012179
 1367 Fit       0.000243
 1368 Fit      -0.011796
 1369 Fit      -0.000973
 1370 Fit       0.006111
 1371 Fit      -0.001441
 1372 Fit       0.004082
 1373 Fit       0.006156
 1374 Fit       0.009777
 1375 Fit      -0.001148
 1376 Fit       0.004653
 1377 Fit       0.007817
 1378 Fit       0.009233
 1379 Fit       0.012394
 1380 Fit       0.004372
 1381 Fit       0.008163
 1382 Fit       0.010465
 1383 Fit      -0.002317
 1384 Fit       0.000746
 1385 Fit       0.004353
 1386 Fit       0.008246
 1387 Fit       0.011742
 1388 Fit       0.012015
 1389 Fit       0.013380
 1390 Fit       0.009944
 1391 Fit       0.005070
 1392 Fit       0.006288
 1393 Fit       0.009356
 1394 Fit       0.009769
 1395 Fit       0.000109
 1396 Fit      -0.002141
 1397 Fit       0.005962
 1398 Fit       0.005387
 1399 Fit       0.002712
 1400 Fit      -0.004857
 1401 Fit       0.009818
 1402 Fit       0.009414
 1403 Fit       0.008473
 1404 Fit       0.005600
 1405 Fit       0.012704
 1406 Fit       0.012311
 1407 Fit       0.013025
 1408 Fit       0.016598
 1409 Fit      -0.011867
 1410 Fit      -0.009623
 1411 Fit      -0.010814
 1412 Fit      -0.009728
 1413 Fit      -0.012533
 1414 Fit      -0.010709
 1415 Fit      -0.011149
 1416 Fit      -0.005423
 1417 Fit      -0.002027
 1418 Fit      -0.003000
 1419 Fit      -0.000955
 1420 Fit       0.004387
 1421 Fit       0.008299
 1422 Fit       0.015522
 1423 Fit      -0.008668
 1424 Fit      -0.002092
 1425 Fit       0.001876
 1426 Fit      -0.007105
 1427 Fit       0.024750
 1428 Fit       0.014141
 1429 Fit       0.004384
 1430 Fit      -0.002920
 1431 Fit      -0.003943
 1432 Fit      -0.008355
 1433 Fit      -0.005900
 1434 Fit      -0.006899
 1435 Fit      -0.012857
 1436 Fit      -0.002682
 1437 Fit      -0.004893
 1438 Fit      -0.003543
 1439 Fit      -0.007156
 1440 Fit      -0.007851
 1441 Fit      -0.000842
 1442 Fit      -0.001843
 1443 Fit      -0.002239
 1444 Fit      -0.002559
 1445 Fit      -0.001919
 1446 Fit      -0.001396
 1447 Fit      -0.001718
 1448 Fit      -0.001452
 1449 Fit      -0.000519
 1450 Fit       0.000827
 1451 Fit       0.000886
 1452 Fit      -0.000238
 1453 Fit       0.000023
 1454 Fit      -0.005223
 1455 Fit      -0.010354
 1456 Fit      -0.011656
 1457 Fit       0.000737
 1458 Fit      -0.015274
 1459 Fit      -0.015978
 1460 Fit      -0.017204
 1461 Fit      -0.019576
 1462 Fit      -0.002843
 1463 Fit      -0.010990
 1464 Fit      -0.010729
 1465 Fit      -0.012620
 1466 Fit      -0.016567
 1467 Fit      -0.015560
 1468 Fit      -0.018832
 1469 Fit      -0.015415
 1470 Fit      -0.008983
 1471 Fit      -0.014091
 1472 Fit      -0.015327
 1473 Fit      -0.013614
 1474 Fit      -0.013688
 1475 Fit      -0.018305
 1476 Fit      -0.004665
 1477 Fit      -0.009742
 1478 Fit      -0.001913
 1479 Fit      -0.018006
 1480 Fit      -0.009982
 1481 Fit      -0.002636
 1482 Fit       0.003451
 1483 Fit      -0.017549
 1484 Fit      -0.010043
 1485 Fit      -0.008431
 1486 Fit      -0.003224
 1487 Fit      -0.000931
 1488 Fit      -0.018230
 1489 Fit       0.001336
 1490 Fit      -0.007726
 1491 Fit      -0.011401
 1492 Fit      -0.000196
 1493 Fit      -0.004271
 1494 Fit      -0.011011
 1495 Fit      -0.014715
 1496 Fit      -0.011113
 1497 Fit      -0.009450
 1498 Fit      -0.010787
 1499 Fit      -0.014815
 1500 Fit      -0.011479
 1501 Fit      -0.015548
 1502 Fit      -0.008620
 1503 Fit      -0.013128
 1504 Fit      -0.009799
 1505 Fit      -0.012402
 1506 Fit      -0.008124
 1507 Fit      -0.009621
 1508 Fit      -0.013811
 1509 Fit      -0.022865
 1510 Fit      -0.030750
 1511 Fit      -0.029232
 1512 Fit      -0.012703
 1513 Fit      -0.010035
 1514 Fit      -0.016326
 1515 Fit      -0.010585
 1516 Fit      -0.029258
 1517 Fit      -0.025749
 1518 Fit      -0.023826
 1519 Fit      -0.025584
 1520 Fit      -0.030420
 1521 Fit      -0.033684
 1522 Fit      -0.018654
 1523 Fit      -0.017409
 1524 Fit      -0.017018
 1525 Fit      -0.019727
 1526 Fit      -0.025900
 1527 Fit      -0.031508
 1528 Fit      -0.034308
 1529 Fit      -0.011670
 1530 Fit      -0.011965
 1531 Fit      -0.021113
 1532 Fit      -0.028253
 1533 Fit      -0.031446
 1534 Fit      -0.014073
 1535 Fit      -0.023340
 1536 Fit      -0.027724
 1537 Fit      -0.017787
 1538 Fit      -0.023081
 1539 Fit      -0.024107
 1540 Fit      -0.012616
 1541 Fit      -0.018081
 1542 Fit      -0.018911
 1543 Fit      -0.013127
 1544 Fit      -0.005649
 1545 Fit       0.001201
 1546 Fit       0.007205
 1547 Fit       0.004428
 1548 Fit       0.012694
 1549 Fit       0.018959
 1550 Fit       0.010727
 1551 Fit       0.026537
 1552 Fit       0.017375
 1553 Fit       0.006924
 1554 Fit      -0.000475
 1555 Fit       0.012786
 1556 Fit       0.003327
 1557 Fit       0.011857
 1558 Fit      -0.009222
 1559 Fit      -0.007923
 1560 Fit      -0.006616
 1561 Fit      -0.008665
 1562 Fit      -0.009427
 1563 Fit      -0.007260
 1564 Fit      -0.010204
 1565 Fit      -0.011204
 1566 Fit      -0.010206
 1567 Fit      -0.006274
 1568 Fit      -0.009540
 1569 Fit      -0.006704
 1570 Fit      -0.006417
 1571 Fit      -0.005050
 1572 Fit      -0.004370
 1573 Fit      -0.001279
 1574 Fit      -0.003992
 1575 Fit       0.004514
 1576 Fit      -0.006936
 1577 Fit      -0.010319
 1578 Fit      -0.005251
 1579 Fit      -0.003987
 1580 Fit      -0.007147
 1581 Fit      -0.009756
 1582 Fit      -0.007475
 1583 Fit      -0.014656
 1584 Fit      -0.009977
 1585 Fit      -0.010935
 1586 Fit      -0.003625
 1587 Fit      -0.004946
 1588 Fit      -0.015512
 1589 Fit      -0.010049
 1590 Fit      -0.010953
 1591 Fit      -0.003358
 1592 Fit      -0.004966
 1593 Fit      -0.019293
 1594 Fit      -0.016092
 1595 Fit      -0.014759
 1596 Fit      -0.016563
 1597 Fit      -0.015837
 1598 Fit      -0.011121
 1599 Fit      -0.017533
 1600 Fit      -0.015758
 1601 Fit      -0.019405
 1602 Fit      -0.002687
 1603 Fit      -0.011057
 1604 Fit      -0.015633
 1605 Fit      -0.017525
 1606 Fit      -0.019377
 1607 Fit      -0.000301
 1608 Fit       0.009379
 1609 Fit       0.008254
 1610 Fit       0.003462
 1611 Fit      -0.007255
 1612 Fit       0.016321
 1613 Fit       0.015861
 1614 Fit       0.014139
 1615 Fit       0.010739
 1616 Fit       0.004819
 1617 Fit       0.024679
 1618 Fit       0.021019
 1619 Fit       0.017970
 1620 Fit       0.014226
 1621 Fit       0.008849
 1622 Fit       0.026840
 1623 Fit       0.020588
 1624 Fit       0.015227
 1625 Fit       0.001214
 1626 Fit      -0.000770
 1627 Fit      -0.003621
 1628 Fit      -0.007818
 1629 Fit      -0.005561
 1630 Fit      -0.009733
 1631 Fit      -0.000041
 1632 Fit       0.001021
 1633 Fit      -0.001482
 1634 Fit      -0.003531
 1635 Fit      -0.003486
 1636 Fit      -0.006053
 1637 Fit      -0.007181
 1638 Fit       0.001121
 1639 Fit      -0.001195
 1640 Fit      -0.002126
 1641 Fit      -0.000915
 1642 Fit      -0.004161
 1643 Fit      -0.006708
 1644 Fit      -0.006580
 1645 Fit      -0.005089
 1646 Fit      -0.011499
 1647 Fit      -0.016043
 1648 Fit      -0.015462
 1649 Fit      -0.001527
 1650 Fit      -0.004766
 1651 Fit      -0.002260
 1652 Fit      -0.000559
 1653 Fit       0.000663
 1654 Fit      -0.008769
 1655 Fit      -0.005772
 1656 Fit      -0.002730
 1657 Fit      -0.001330
 1658 Fit      -0.004334
 1659 Fit      -0.020247
 1660 Fit      -0.014104
 1661 Fit      -0.021000
 1662 Fit      -0.012601
 1663 Fit      -0.026667
 1664 Fit      -0.014401
 1665 Fit      -0.009197
 1666 Fit      -0.024410
 1667 Fit      -0.013413
 1668 Fit      -0.009121
 1669 Fit      -0.020233
 1670 Fit      -0.012503
 1671 Fit      -0.004612
 1672 Fit      -0.002950
 1673 Fit      -0.002099
 1674 Fit      -0.005029
 1675 Fit      -0.002977
 1676 Fit      -0.001851
 1677 Fit      -0.001672
 1678 Fit      -0.007922
 1679 Fit      -0.004879
 1680 Fit      -0.002667
 1681 Fit      -0.001516
 1682 Fit      -0.001330
 1683 Fit      -0.001849
 1684 Fit      -0.007381
 1685 Fit      -0.004231
 1686 Fit      -0.002282
 1687 Fit      -0.001615
 1688 Fit      -0.001557
 1689 Fit      -0.004145
 1690 Fit      -0.002670
 1691 Fit      -0.000748
 1692 Fit      -0.000689
 1693 Fit      -0.001892
 1694 Fit      -0.001995
 1695 Fit      -0.001208
 1696 Fit      -0.002160
 1697 Fit      -0.003818
 1698 Fit      -0.003891
 1699 Fit      -0.003667
 1700 Fit      -0.003325
 1701 Fit      -0.007907
 1702 Fit      -0.006832
 1703 Fit      -0.005875
 1704 Fit      -0.013256
 1705 Fit      -0.010143
 1706 Fit      -0.002046
 1707 Fit      -0.001220
 1708 Fit      -0.000179
 1709 Fit      -0.001645
 1710 Fit      -0.000926
 1711 Fit      -0.000250
 1712 Fit       0.000403
 1713 Fit      -0.001366
 1714 Fit      -0.000747
 1715 Fit       0.000015
 1716 Fit       0.000685
 1717 Fit       0.001753
 1718 Fit       0.000097
 1719 Fit       0.001062
 1720 Fit      -0.000216
 1721 Fit      -0.000536
 1722 Fit      -0.000073
 1723 Fit       0.000228
 1724 Fit      -0.000273
 1725 Fit      -0.001078
 1726 Fit      -0.000232
 1727 Fit       0.000077
 1728 Fit      -0.000143
 1729 Fit      -0.000504
 1730 Fit      -0.001623
 1731 Fit      -0.000895
 1732 Fit      -0.000798
 1733 Fit      -0.001068
 1734 Fit      -0.001319
 1735 Fit      -0.001930
 1736 Fit      -0.002113
 1737 Fit      -0.001206
 1738 Fit      -0.000999
 1739 Fit      -0.000514
 1740 Fit      -0.000467
 1741 Fit       0.000008
 1742 Fit       0.000522
 1743 Fit       0.000297
 1744 Fit       0.000054
 1745 Fit      -0.000109
 1746 Fit       0.000743
 1747 Fit       0.000926
 1748 Fit       0.000538
 1749 Fit      -0.000385
 1750 Fit       0.000578
 1751 Fit       0.000746
 1752 Fit       0.000366
 1753 Fit       0.000613
 1754 Fit      -0.000528
 1755 Fit      -0.000900
 1756 Fit      -0.000084
 1757 Fit       0.000033
 1758 Fit      -0.000357
 1759 Fit      -0.001073
 1760 Fit      -0.001537
 1761 Fit      -0.001130
 1762 Fit      -0.000213
 1763 Fit       0.000143
 1764 Fit       0.000067
 1765 Fit      -0.000034
 1766 Fit      -0.000245
 1767 Fit       0.000668
 1768 Fit       0.000378
 1769 Fit       0.000629
 1770 Fit       0.000816
 1771 Fit       0.001118
 1772 Fit       0.001053
 1773 Fit       0.000307
 1774 Fit       0.000623
 1775 Fit       0.001126
 1776 Fit       0.001867
 1777 Fit      -0.000123
 1778 Fit       0.000166
 1779 Fit       0.000604
 1780 Fit       0.001415
 1781 Fit       0.000152
 1782 Fit       0.002986
 1783 Fit       0.000051
 1784 Fit       0.000937
 1785 Fit       0.000312
 1786 Fit       0.000400
 1787 Fit       0.002396
 1788 Fit       0.001637
 1789 Fit       0.000912
 1790 Fit       0.000843
 1791 Fit       0.002230
 1792 Fit       0.001277
 1793 Fit      -0.002062
 1794 Fit      -0.007289
 1795 Fit       0.002128
 1796 Fit       0.000449
 1797 Fit      -0.003371
 1798 Fit       0.001245
 1799 Fit      -0.001611
 1800 Fit      -0.006215
 1801 Fit      -0.011977
 1802 Fit       0.001139
 1803 Fit      -0.001236
 1804 Fit      -0.004043
 1805 Fit      -0.009299
 1806 Fit      -0.006648
 1807 Fit      -0.009259
 1808 Fit      -0.016697
 1809 Fit      -0.016238
 1810 Fit      -0.017614
 1811 Fit      -0.016954
 1812 Fit      -0.011503
 1813 Fit      -0.016641
 1814 Fit      -0.013882
 1815 Fit      -0.010834
 1816 Fit      -0.016405
 1817 Fit      -0.015908
 1818 Fit      -0.017245
 1819 Fit      -0.015469
 1820 Fit      -0.014582
 1821 Fit       0.011400
 1822 Fit       0.008886
 1823 Fit       0.014128
 1824 Fit       0.012144
 1825 Fit       0.011533
 1826 Fit       0.012050
 1827 Fit       0.011065
 1828 Fit       0.008804
 1829 Fit       0.010870
 1830 Fit       0.008297
 1831 Fit       0.003837
 1832 Fit       0.007557
 1833 Fit       0.008481
 1834 Fit       0.009036
 1835 Fit       0.011731
 1836 Fit       0.012270
 1837 Fit       0.010993
 1838 Fit       0.011944
 1839 Fit       0.014319
 1840 Fit       0.009999
 1841 Fit       0.011043
 1842 Fit       0.010930
 1843 Fit       0.005862
 1844 Fit       0.007728
 1845 Fit       0.016088
 1846 Fit       0.022084
 1847 Fit       0.026850
 1848 Fit       0.010621
 1849 Fit       0.020159
 1850 Fit       0.025390
 1851 Fit       0.028601
 1852 Fit       0.030537
 1853 Fit       0.017044
 1854 Fit       0.024319
 1855 Fit       0.027638
 1856 Fit       0.027966
 1857 Fit       0.024490
 1858 Fit       0.012701
 1859 Fit       0.022003
 1860 Fit       0.024491
 1861 Fit       0.019836
 1862 Fit       0.017926
 1863 Fit       0.002720
 1864 Fit       0.010629
 1865 Fit       0.003504
 1866 Fit       0.012226
 1867 Fit       0.002725
 1868 Fit       0.013934
 1869 Fit       0.005525
 1870 Fit       0.000465
 1871 Fit       0.009817
 1872 Fit      -0.008364
 1873 Fit      -0.000620
 1874 Fit       0.004459
 1875 Fit       0.007925
 1876 Fit       0.010124
 1877 Fit      -0.010097
 1878 Fit      -0.002985
 1879 Fit       0.011301
 1880 Fit      -0.001897
 1881 Fit       0.002500
 1882 Fit       0.006549
 1883 Fit       0.010598
 1884 Fit       0.011838
 1885 Fit       0.013125
 1886 Fit       0.010468
 1887 Fit      -0.001682
 1888 Fit      -0.002889
 1889 Fit       0.003676
 1890 Fit      -0.003471
 1891 Fit       0.001597
 1892 Fit       0.003596
 1893 Fit       0.007125
 1894 Fit      -0.001432
 1895 Fit       0.003171
 1896 Fit       0.005657
 1897 Fit       0.006772
 1898 Fit       0.009591
 1899 Fit       0.001116
 1900 Fit       0.004910
 1901 Fit       0.007223
 1902 Fit       0.008559
 1903 Fit       0.004171
 1904 Fit       0.007181
 1905 Fit       0.009346
 1906 Fit      -0.007544
 1907 Fit      -0.003609
 1908 Fit       0.011833
 1909 Fit       0.013256
 1910 Fit      -0.001245
 1911 Fit       0.001264
 1912 Fit       0.004194
 1913 Fit       0.007259
 1914 Fit       0.009943
 1915 Fit       0.010290
 1916 Fit       0.011304
 1917 Fit       0.008411
 1918 Fit       0.004544
 1919 Fit       0.005470
 1920 Fit       0.008051
 1921 Fit       0.008291
 1922 Fit      -0.004005
 1923 Fit       0.003609
 1924 Fit       0.002841
 1925 Fit       0.000033
 1926 Fit       0.007149
 1927 Fit       0.006640
 1928 Fit       0.005477
 1929 Fit       0.002374
 1930 Fit       0.009752
 1931 Fit       0.009287
 1932 Fit       0.008889
 1933 Fit       0.008106
 1934 Fit       0.011629
 1935 Fit       0.012902
 -----------------------------------------------------------------
 Leave Link  602 at Thu Jan 30 17:56:48 2025, MaxMem=   104857600 cpu:               0.2 elap:               0.2
 (Enter /home/pb777/GAUSSIAN/g16/l9999.exe)

 Test job not archived.
 1\1\GINC-BUMBU\SP\RHF\6-31G(d)\C19H23N5O2\PB777\30-Jan-2025\0\\#P HF/6
 -31G* GEOM(AllCheck) Guess(Read) NoSymm Pop=mk IOp(6/33=2) GFInput GFP
 rint\\Gaussian Calculation\\0,1\C,0,1.4329481419,28.9160024921,6.66466
 9036\C,0,-2.1298433003,31.2783392747,7.4800903816\C,0,0.0548911971,26.
 5493515586,9.6034459702\C,0,-0.7237762381,25.8563994943,10.7051464955\
 C,0,-2.1165403411,25.4228384685,10.2408829575\C,0,-2.8759314972,24.693
 0728836,11.3471128076\C,0,-2.0824375913,23.4993427544,11.8749416042\C,
 0,-0.6904334397,23.9243484363,12.339019846\C,0,0.0683652158,24.6567254
 712,11.2331228821\C,0,4.3042555464,25.4813653916,7.2433738476\C,0,5.41
 5128402,25.4568148899,6.3974690587\C,0,5.5637754075,26.4721207953,5.45
 29814988\C,0,4.6117772309,27.4828284183,5.3696362339\N,0,0.9614808941,
 28.1328596364,7.6542813043\C,0,-0.1743610714,28.4721397009,8.247796800
 8\O,0,-0.6680682642,27.7246172489,9.2267715532\C,0,-0.8680298967,29.62
 55480605,7.8495796038\N,0,-2.0394778819,30.2333647039,8.2518734981\N,0
 ,-1.085638355,31.3994033531,6.5880131649\C,0,-0.2536529425,30.33628610
 01,6.8097445398\N,0,0.8792736214,30.0395245928,6.1841785152\N,0,2.6037
 347336,28.5742841284,6.0451492763\C,0,3.4972672918,27.5131895559,6.213
 4374656\C,0,3.3558828516,26.4882619586,7.160774943\H,0,-2.9322957677,3
 2.0045834472,7.5065120433\H,0,0.1688324055,25.8985233204,8.7269987639\
 H,0,1.0581754398,26.8369822897,9.9408786369\H,0,-0.8447671557,26.57781
 37658,11.5281019563\H,0,-2.0057333885,24.753019776,9.3734406154\H,0,-2
 .6795784056,26.296603914,9.8952158152\H,0,-3.8565047553,24.3675751761,
 10.978430411\H,0,-3.0705853369,25.3925192324,12.1734244427\H,0,-1.9829
 512346,22.7500117185,11.0755810784\H,0,-2.6237048051,23.0113519981,12.
 6951064849\H,0,-0.1153477071,23.052510753,12.6746869083\H,0,-0.7870456
 984,24.5894702961,13.2096195779\H,0,1.0511041549,24.9828874401,11.5992
 18656\H,0,0.2587056259,23.9592229151,10.4026489991\H,0,4.1971846968,24
 .6866972336,7.9758926821\O,0,6.2795885938,24.4204505375,6.5695576734\H
 ,0,6.411021867,26.4923586478,4.776131716\H,0,4.7429997765,28.267345454
 5,4.6265379354\H,0,-0.9462886354,32.1226262007,5.8997367753\H,0,2.8453
 55645,29.2386270258,5.323762062\H,0,2.5011344439,26.4941442917,7.82276
 57849\C,0,7.4067341516,24.3707366783,5.731187131\H,0,7.9644413477,23.4
 792544415,6.0241288809\H,0,7.1230643849,24.2857125693,4.6730143945\H,0
 ,8.0478706423,25.2539415081,5.8589272906\\Version=ES64L-G16RevA.03\HF=
 -1154.8829774\RMSD=8.096e-09\Dipole=0.4531003,0.6950397,-0.932541\Quad
 rupole=-14.8966908,61.0590656,-46.1623749,18.9381052,0.8970124,-47.005
 9607\PG=C01 [X(C19H23N5O2)]\\@


 DIATOMIC MOLECULES ARE PECULIAR BECAUSE THEY ONLY HAVE TWO ENDS,
 AND THESE ENDS ARE VERY CLOSE TOGETHER.
 KLAUS RUEDENBERG, REV.MOD.PHYS. PG 176, 32, (1960)
 Job cpu time:       0 days  0 hours  1 minutes 58.3 seconds.
 Elapsed time:       0 days  0 hours  1 minutes 58.7 seconds.
 File lengths (MBytes):  RWF=    102 Int=      0 D2E=      0 Chk=     18 Scr=      1
 Normal termination of Gaussian 16 at Thu Jan 30 17:56:48 2025.
