 Entering Gaussian System, Link 0=/home/pb777/GAUSSIAN/g16/g16
 Initial command:
 /home/pb777/GAUSSIAN/g16/l1.exe "/home/pb777/GAUSSIAN/g16/scratch/Gau-1063047.inp" -scrdir="/home/pb777/GAUSSIAN/g16/scratch/"
 Entering Link 1 = /home/pb777/GAUSSIAN/g16/l1.exe PID=   1063048.
  
 Copyright (c) 1988,1990,1992,1993,1995,1998,2003,2009,2016,
            Gaussian, Inc.  All Rights Reserved.
  
 This is part of the Gaussian(R) 16 program.  It is based on
 the Gaussian(R) 09 system (copyright 2009, Gaussian, Inc.),
 the Gaussian(R) 03 system (copyright 2003, Gaussian, Inc.),
 the Gaussian(R) 98 system (copyright 1998, Gaussian, Inc.),
 the Gaussian(R) 94 system (copyright 1995, Gaussian, Inc.),
 the Gaussian 92(TM) system (copyright 1992, Gaussian, Inc.),
 the Gaussian 90(TM) system (copyright 1990, Gaussian, Inc.),
 the Gaussian 88(TM) system (copyright 1988, Gaussian, Inc.),
 the Gaussian 86(TM) system (copyright 1986, Carnegie Mellon
 University), and the Gaussian 82(TM) system (copyright 1983,
 Carnegie Mellon University). Gaussian is a federally registered
 trademark of Gaussian, Inc.
  
 This software contains proprietary and confidential information,
 including trade secrets, belonging to Gaussian, Inc.
  
 This software is provided under written license and may be
 used, copied, transmitted, or stored only in accord with that
 written license.
  
 The following legend is applicable only to US Government
 contracts under FAR:
  
                    RESTRICTED RIGHTS LEGEND
  
 Use, reproduction and disclosure by the US Government is
 subject to restrictions as set forth in subparagraphs (a)
 and (c) of the Commercial Computer Software - Restricted
 Rights clause in FAR 52.227-19.
  
 Gaussian, Inc.
 340 Quinnipiac St., Bldg. 40, Wallingford CT 06492
  
  
 ---------------------------------------------------------------
 Warning -- This program may not be used in any manner that
 competes with the business of Gaussian, Inc. or will provide
 assistance to any competitor of Gaussian, Inc.  The licensee
 of this program is prohibited from giving any competitor of
 Gaussian, Inc. access to this program.  By using this program,
 the user acknowledges that Gaussian, Inc. is engaged in the
 business of creating and licensing software in the field of
 computational chemistry and represents and warrants to the
 licensee that it is not a competitor of Gaussian, Inc. and that
 it will not use this program in any manner prohibited above.
 ---------------------------------------------------------------
  

 Cite this work as:
 Gaussian 16, Revision A.03,
 M. J. Frisch, G. W. Trucks, H. B. Schlegel, G. E. Scuseria, 
 M. A. Robb, J. R. Cheeseman, G. Scalmani, V. Barone, 
 G. A. Petersson, H. Nakatsuji, X. Li, M. Caricato, A. V. Marenich, 
 J. Bloino, B. G. Janesko, R. Gomperts, B. Mennucci, H. P. Hratchian, 
 J. V. Ortiz, A. F. Izmaylov, J. L. Sonnenberg, D. Williams-Young, 
 F. Ding, F. Lipparini, F. Egidi, J. Goings, B. Peng, A. Petrone, 
 T. Henderson, D. Ranasinghe, V. G. Zakrzewski, J. Gao, N. Rega, 
 G. Zheng, W. Liang, M. Hada, M. Ehara, K. Toyota, R. Fukuda, 
 J. Hasegawa, M. Ishida, T. Nakajima, Y. Honda, O. Kitao, H. Nakai, 
 T. Vreven, K. Throssell, J. A. Montgomery, Jr., J. E. Peralta, 
 F. Ogliaro, M. J. Bearpark, J. J. Heyd, E. N. Brothers, K. N. Kudin, 
 V. N. Staroverov, T. A. Keith, R. Kobayashi, J. Normand, 
 K. Raghavachari, A. P. Rendell, J. C. Burant, S. S. Iyengar, 
 J. Tomasi, M. Cossi, J. M. Millam, M. Klene, C. Adamo, R. Cammi, 
 J. W. Ochterski, R. L. Martin, K. Morokuma, O. Farkas, 
 J. B. Foresman, and D. J. Fox, Gaussian, Inc., Wallingford CT, 2016.
 
 ******************************************
 Gaussian 16:  ES64L-G16RevA.03 25-Dec-2016
                30-Jan-2025 
 ******************************************
 %NPROC=1', f'%MEM=512MB
 Will use up to    1 processors via shared memory.
 %chk=binder_29.antechamber.chk
 ------------------------
 #P HF/6-31G* OPT(CalcFC)
 ------------------------
 1/10=4,18=20,19=15,38=1/1,3;
 2/9=110,12=2,17=6,18=5,40=1/2;
 3/5=1,6=6,7=1,11=9,25=1,30=1,71=2,140=1/1,2,3;
 4//1;
 5/5=2,38=5/2;
 8/6=4,10=90,11=11/1;
 11/6=1,8=1,9=11,15=111,16=1/1,2,10;
 10/6=1,13=1/2;
 6/7=2,8=2,9=2,10=2,28=1/1;
 7/10=1,18=20,25=1/1,2,3,16;
 1/10=4,18=20,19=15/3(2);
 2/9=110/2;
 99//99;
 2/9=110/2;
 3/5=1,6=6,7=1,11=9,25=1,30=1,71=1/1,2,3;
 4/5=5,16=3,69=1/1;
 5/5=2,38=5/2;
 7//1,2,3,16;
 1/18=20,19=15/3(-5);
 2/9=110/2;
 6/7=2,8=2,9=2,10=2,19=2,28=1/1;
 99/9=1/99;
 Leave Link    1 at Thu Jan 30 14:40:31 2025, MaxMem=           0 cpu:               0.0 elap:               0.0
 (Enter /home/pb777/GAUSSIAN/g16/l101.exe)
 --------------------
 Gaussian Calculation
 --------------------
 Symbolic Z-matrix:
 Charge =  0 Multiplicity = 1
 C                     1.422     29.034    6.768 
 C                    -1.45      32.163    8.008 
 C                    -0.582     26.625    8.978 
 C                    -1.25      25.767    10.081 
 C                    -1.355     24.331    9.527 
 C                    -1.653     23.273    10.603 
 C                    -0.781     23.343    11.865 
 C                    -0.712     24.779    12.432 
 C                    -0.388     25.86     11.38 
 C                     3.964     25.588    7.583 
 C                     4.703     25.136    6.486 
 C                     4.78      25.918    5.334 
 C                     4.071     27.111    5.258 
 N                     0.488     28.18     7.498 
 C                    -0.568     28.637    8.086 
 O                    -1.389     27.808    8.752 
 C                    -0.837     30.059    7.987 
 N                    -1.806     31.022    8.425 
 N                    -0.337     32.096    7.318 
 C                     0.012     30.844    7.311 
 N                     1.172     30.278    6.709 
 N                     2.523     28.721    6.157 
 C                     3.273     27.543    6.313 
 C                     3.26      26.789    7.494 
 H                    -1.974     33.085    8.159 
 H                    -0.539     26.054    8.043 
 H                     0.453     26.777    9.312 
 H                    -2.258     26.125    10.296 
 H                    -0.409     24.042    9.063 
 H                    -2.106     24.282    8.736 
 H                    -1.609     22.271    10.176 
 H                    -2.684     23.422    10.916 
 H                     0.23      23.014    11.618 
 H                    -1.152     22.652    12.623 
 H                    -0.027     24.811    13.273 
 H                    -1.687     25.018    12.862 
 H                    -0.474     26.853    11.824 
 H                     0.671     25.729    11.148 
 H                     3.92      25.009    8.496 
 H                     5.392     25.621    4.497 
 H                     4.149     27.703    4.366 
 H                     0.088     32.896    6.844 
 H                     2.916     29.446    5.574 
 H                     2.683     27.12     8.344 
 S                     5.574     23.569    6.565 
 O                     4.944     22.779    7.629 
 O                     7.004     23.882    6.647 
 N                     5.283     22.71     5.025 
 C                     3.903     22.272    4.719 
 H                     3.918     21.405    4.058 
 H                     3.381     22.003    5.638 
 H                     3.357     23.087    4.243 
 C                     6.127     23.026    3.846 
 H                     6.213     22.149    3.204 
 H                     5.696     23.849    3.276 
 H                     7.129     23.314    4.166 
 
 ITRead=  0  0  0  0  0  0  0  0  0  0  0  0  0  0  0  0  0  0  0  0
 ITRead=  0  0  0  0  0  0  0  0  0  0  0  0  0  0  0  0  0  0  0  0
 ITRead=  0  0  0  0  0  0  0  0  0  0  0  0  0  0  0  0
 MicOpt= -1 -1 -1 -1 -1 -1 -1 -1 -1 -1 -1 -1 -1 -1 -1 -1 -1 -1 -1 -1
 MicOpt= -1 -1 -1 -1 -1 -1 -1 -1 -1 -1 -1 -1 -1 -1 -1 -1 -1 -1 -1 -1
 MicOpt= -1 -1 -1 -1 -1 -1 -1 -1 -1 -1 -1 -1 -1 -1 -1 -1
 NAtoms=     56 NQM=       56 NQMF=       0 NMMI=      0 NMMIF=      0
                NMic=       0 NMicF=      0.
                    Isotopes and Nuclear Properties:
 (Nuclear quadrupole moments (NQMom) in fm**2, nuclear magnetic moments (NMagM)
  in nuclear magnetons)

  Atom         1           2           3           4           5           6           7           8           9          10
 IAtWgt=          12          12          12          12          12          12          12          12          12          12
 AtmWgt=  12.0000000  12.0000000  12.0000000  12.0000000  12.0000000  12.0000000  12.0000000  12.0000000  12.0000000  12.0000000
 NucSpn=           0           0           0           0           0           0           0           0           0           0
 AtZEff=  -0.0000000  -0.0000000  -0.0000000  -0.0000000  -0.0000000  -0.0000000  -0.0000000  -0.0000000  -0.0000000  -0.0000000
 NQMom=    0.0000000   0.0000000   0.0000000   0.0000000   0.0000000   0.0000000   0.0000000   0.0000000   0.0000000   0.0000000
 NMagM=    0.0000000   0.0000000   0.0000000   0.0000000   0.0000000   0.0000000   0.0000000   0.0000000   0.0000000   0.0000000
 AtZNuc=   6.0000000   6.0000000   6.0000000   6.0000000   6.0000000   6.0000000   6.0000000   6.0000000   6.0000000   6.0000000

  Atom        11          12          13          14          15          16          17          18          19          20
 IAtWgt=          12          12          12          14          12          16          12          14          14          12
 AtmWgt=  12.0000000  12.0000000  12.0000000  14.0030740  12.0000000  15.9949146  12.0000000  14.0030740  14.0030740  12.0000000
 NucSpn=           0           0           0           2           0           0           0           2           2           0
 AtZEff=  -0.0000000  -0.0000000  -0.0000000  -0.0000000  -0.0000000  -0.0000000  -0.0000000  -0.0000000  -0.0000000  -0.0000000
 NQMom=    0.0000000   0.0000000   0.0000000   2.0440000   0.0000000   0.0000000   0.0000000   2.0440000   2.0440000   0.0000000
 NMagM=    0.0000000   0.0000000   0.0000000   0.4037610   0.0000000   0.0000000   0.0000000   0.4037610   0.4037610   0.0000000
 AtZNuc=   6.0000000   6.0000000   6.0000000   7.0000000   6.0000000   8.0000000   6.0000000   7.0000000   7.0000000   6.0000000

  Atom        21          22          23          24          25          26          27          28          29          30
 IAtWgt=          14          14          12          12           1           1           1           1           1           1
 AtmWgt=  14.0030740  14.0030740  12.0000000  12.0000000   1.0078250   1.0078250   1.0078250   1.0078250   1.0078250   1.0078250
 NucSpn=           2           2           0           0           1           1           1           1           1           1
 AtZEff=  -0.0000000  -0.0000000  -0.0000000  -0.0000000  -0.0000000  -0.0000000  -0.0000000  -0.0000000  -0.0000000  -0.0000000
 NQMom=    2.0440000   2.0440000   0.0000000   0.0000000   0.0000000   0.0000000   0.0000000   0.0000000   0.0000000   0.0000000
 NMagM=    0.4037610   0.4037610   0.0000000   0.0000000   2.7928460   2.7928460   2.7928460   2.7928460   2.7928460   2.7928460
 AtZNuc=   7.0000000   7.0000000   6.0000000   6.0000000   1.0000000   1.0000000   1.0000000   1.0000000   1.0000000   1.0000000

  Atom        31          32          33          34          35          36          37          38          39          40
 IAtWgt=           1           1           1           1           1           1           1           1           1           1
 AtmWgt=   1.0078250   1.0078250   1.0078250   1.0078250   1.0078250   1.0078250   1.0078250   1.0078250   1.0078250   1.0078250
 NucSpn=           1           1           1           1           1           1           1           1           1           1
 AtZEff=  -0.0000000  -0.0000000  -0.0000000  -0.0000000  -0.0000000  -0.0000000  -0.0000000  -0.0000000  -0.0000000  -0.0000000
 NQMom=    0.0000000   0.0000000   0.0000000   0.0000000   0.0000000   0.0000000   0.0000000   0.0000000   0.0000000   0.0000000
 NMagM=    2.7928460   2.7928460   2.7928460   2.7928460   2.7928460   2.7928460   2.7928460   2.7928460   2.7928460   2.7928460
 AtZNuc=   1.0000000   1.0000000   1.0000000   1.0000000   1.0000000   1.0000000   1.0000000   1.0000000   1.0000000   1.0000000

  Atom        41          42          43          44          45          46          47          48          49          50
 IAtWgt=           1           1           1           1          32          16          16          14          12           1
 AtmWgt=   1.0078250   1.0078250   1.0078250   1.0078250  31.9720718  15.9949146  15.9949146  14.0030740  12.0000000   1.0078250
 NucSpn=           1           1           1           1           0           0           0           2           0           1
 AtZEff=  -0.0000000  -0.0000000  -0.0000000  -0.0000000  -0.0000000  -0.0000000  -0.0000000  -0.0000000  -0.0000000  -0.0000000
 NQMom=    0.0000000   0.0000000   0.0000000   0.0000000   0.0000000   0.0000000   0.0000000   2.0440000   0.0000000   0.0000000
 NMagM=    2.7928460   2.7928460   2.7928460   2.7928460   0.0000000   0.0000000   0.0000000   0.4037610   0.0000000   2.7928460
 AtZNuc=   1.0000000   1.0000000   1.0000000   1.0000000  16.0000000   8.0000000   8.0000000   7.0000000   6.0000000   1.0000000

  Atom        51          52          53          54          55          56
 IAtWgt=           1           1          12           1           1           1
 AtmWgt=   1.0078250   1.0078250  12.0000000   1.0078250   1.0078250   1.0078250
 NucSpn=           1           1           0           1           1           1
 AtZEff=  -0.0000000  -0.0000000  -0.0000000  -0.0000000  -0.0000000  -0.0000000
 NQMom=    0.0000000   0.0000000   0.0000000   0.0000000   0.0000000   0.0000000
 NMagM=    2.7928460   2.7928460   0.0000000   2.7928460   2.7928460   2.7928460
 AtZNuc=   1.0000000   1.0000000   6.0000000   1.0000000   1.0000000   1.0000000
 Leave Link  101 at Thu Jan 30 14:40:31 2025, MaxMem=   104857600 cpu:               0.1 elap:               0.2
 (Enter /home/pb777/GAUSSIAN/g16/l103.exe)

 GradGradGradGradGradGradGradGradGradGradGradGradGradGradGradGradGradGrad
 Berny optimization.
 Initialization pass.
                           ----------------------------
                           !    Initial Parameters    !
                           ! (Angstroms and Degrees)  !
 --------------------------                            --------------------------
 ! Name  Definition              Value          Derivative Info.                !
 --------------------------------------------------------------------------------
 ! R1    R(1,14)                 1.461          calculate D2E/DX2 analytically  !
 ! R2    R(1,21)                 1.2702         calculate D2E/DX2 analytically  !
 ! R3    R(1,22)                 1.2975         calculate D2E/DX2 analytically  !
 ! R4    R(2,18)                 1.2659         calculate D2E/DX2 analytically  !
 ! R5    R(2,19)                 1.3112         calculate D2E/DX2 analytically  !
 ! R6    R(2,25)                 1.0712         calculate D2E/DX2 analytically  !
 ! R7    R(3,4)                  1.5489         calculate D2E/DX2 analytically  !
 ! R8    R(3,16)                 1.4498         calculate D2E/DX2 analytically  !
 ! R9    R(3,26)                 1.0964         calculate D2E/DX2 analytically  !
 ! R10   R(3,27)                 1.0981         calculate D2E/DX2 analytically  !
 ! R11   R(4,5)                  1.5427         calculate D2E/DX2 analytically  !
 ! R12   R(4,9)                  1.5618         calculate D2E/DX2 analytically  !
 ! R13   R(4,28)                 1.0911         calculate D2E/DX2 analytically  !
 ! R14   R(5,6)                  1.5382         calculate D2E/DX2 analytically  !
 ! R15   R(5,29)                 1.0926         calculate D2E/DX2 analytically  !
 ! R16   R(5,30)                 1.0918         calculate D2E/DX2 analytically  !
 ! R17   R(6,7)                  1.5356         calculate D2E/DX2 analytically  !
 ! R18   R(6,31)                 1.0901         calculate D2E/DX2 analytically  !
 ! R19   R(6,32)                 1.0877         calculate D2E/DX2 analytically  !
 ! R20   R(7,8)                  1.5454         calculate D2E/DX2 analytically  !
 ! R21   R(7,33)                 1.0915         calculate D2E/DX2 analytically  !
 ! R22   R(7,34)                 1.0907         calculate D2E/DX2 analytically  !
 ! R23   R(8,9)                  1.5428         calculate D2E/DX2 analytically  !
 ! R24   R(8,35)                 1.0851         calculate D2E/DX2 analytically  !
 ! R25   R(8,36)                 1.0921         calculate D2E/DX2 analytically  !
 ! R26   R(9,37)                 1.0911         calculate D2E/DX2 analytically  !
 ! R27   R(9,38)                 1.092          calculate D2E/DX2 analytically  !
 ! R28   R(10,11)                1.3978         calculate D2E/DX2 analytically  !
 ! R29   R(10,24)                1.395          calculate D2E/DX2 analytically  !
 ! R30   R(10,39)                1.082          calculate D2E/DX2 analytically  !
 ! R31   R(11,12)                1.3945         calculate D2E/DX2 analytically  !
 ! R32   R(11,45)                1.7945         calculate D2E/DX2 analytically  !
 ! R33   R(12,13)                1.3899         calculate D2E/DX2 analytically  !
 ! R34   R(12,40)                1.0786         calculate D2E/DX2 analytically  !
 ! R35   R(13,23)                1.3916         calculate D2E/DX2 analytically  !
 ! R36   R(13,41)                1.0734         calculate D2E/DX2 analytically  !
 ! R37   R(14,15)                1.2922         calculate D2E/DX2 analytically  !
 ! R38   R(15,16)                1.3434         calculate D2E/DX2 analytically  !
 ! R39   R(15,17)                1.4506         calculate D2E/DX2 analytically  !
 ! R40   R(17,18)                1.4346         calculate D2E/DX2 analytically  !
 ! R41   R(17,20)                1.3394         calculate D2E/DX2 analytically  !
 ! R42   R(19,20)                1.2998         calculate D2E/DX2 analytically  !
 ! R43   R(19,42)                1.0224         calculate D2E/DX2 analytically  !
 ! R44   R(20,21)                1.4242         calculate D2E/DX2 analytically  !
 ! R45   R(22,23)                1.4052         calculate D2E/DX2 analytically  !
 ! R46   R(22,43)                1.0099         calculate D2E/DX2 analytically  !
 ! R47   R(23,24)                1.4012         calculate D2E/DX2 analytically  !
 ! R48   R(24,44)                1.0793         calculate D2E/DX2 analytically  !
 ! R49   R(45,46)                1.4673         calculate D2E/DX2 analytically  !
 ! R50   R(45,47)                1.4661         calculate D2E/DX2 analytically  !
 ! R51   R(45,48)                1.7872         calculate D2E/DX2 analytically  !
 ! R52   R(48,49)                1.4798         calculate D2E/DX2 analytically  !
 ! R53   R(48,53)                1.484          calculate D2E/DX2 analytically  !
 ! R54   R(49,50)                1.0903         calculate D2E/DX2 analytically  !
 ! R55   R(49,51)                1.0906         calculate D2E/DX2 analytically  !
 ! R56   R(49,52)                1.0904         calculate D2E/DX2 analytically  !
 ! R57   R(53,54)                1.0903         calculate D2E/DX2 analytically  !
 ! R58   R(53,55)                1.0899         calculate D2E/DX2 analytically  !
 ! R59   R(53,56)                1.0906         calculate D2E/DX2 analytically  !
 ! A1    A(14,1,21)            118.0237         calculate D2E/DX2 analytically  !
 ! A2    A(14,1,22)            129.5499         calculate D2E/DX2 analytically  !
 ! A3    A(21,1,22)            112.4195         calculate D2E/DX2 analytically  !
 ! A4    A(18,2,19)            111.4686         calculate D2E/DX2 analytically  !
 ! A5    A(18,2,25)            126.2845         calculate D2E/DX2 analytically  !
 ! A6    A(19,2,25)            122.2337         calculate D2E/DX2 analytically  !
 ! A7    A(4,3,16)             108.8423         calculate D2E/DX2 analytically  !
 ! A8    A(4,3,26)             109.6161         calculate D2E/DX2 analytically  !
 ! A9    A(4,3,27)             105.4601         calculate D2E/DX2 analytically  !
 ! A10   A(16,3,26)            108.2917         calculate D2E/DX2 analytically  !
 ! A11   A(16,3,27)            117.3296         calculate D2E/DX2 analytically  !
 ! A12   A(26,3,27)            107.1275         calculate D2E/DX2 analytically  !
 ! A13   A(3,4,5)              106.8132         calculate D2E/DX2 analytically  !
 ! A14   A(3,4,9)              108.7409         calculate D2E/DX2 analytically  !
 ! A15   A(3,4,28)             110.9167         calculate D2E/DX2 analytically  !
 ! A16   A(5,4,9)              113.059          calculate D2E/DX2 analytically  !
 ! A17   A(5,4,28)             108.2581         calculate D2E/DX2 analytically  !
 ! A18   A(9,4,28)             109.0551         calculate D2E/DX2 analytically  !
 ! A19   A(4,5,6)              113.7174         calculate D2E/DX2 analytically  !
 ! A20   A(4,5,29)             109.8638         calculate D2E/DX2 analytically  !
 ! A21   A(4,5,30)             110.4108         calculate D2E/DX2 analytically  !
 ! A22   A(6,5,29)             106.4326         calculate D2E/DX2 analytically  !
 ! A23   A(6,5,30)             110.0394         calculate D2E/DX2 analytically  !
 ! A24   A(29,5,30)            106.0225         calculate D2E/DX2 analytically  !
 ! A25   A(5,6,7)              115.6925         calculate D2E/DX2 analytically  !
 ! A26   A(5,6,31)             110.5129         calculate D2E/DX2 analytically  !
 ! A27   A(5,6,32)             106.9005         calculate D2E/DX2 analytically  !
 ! A28   A(7,6,31)             109.9325         calculate D2E/DX2 analytically  !
 ! A29   A(7,6,32)             107.1888         calculate D2E/DX2 analytically  !
 ! A30   A(31,6,32)            106.0749         calculate D2E/DX2 analytically  !
 ! A31   A(6,7,8)              111.6688         calculate D2E/DX2 analytically  !
 ! A32   A(6,7,33)             109.0426         calculate D2E/DX2 analytically  !
 ! A33   A(6,7,34)             110.4329         calculate D2E/DX2 analytically  !
 ! A34   A(8,7,33)             108.7686         calculate D2E/DX2 analytically  !
 ! A35   A(8,7,34)             110.4189         calculate D2E/DX2 analytically  !
 ! A36   A(33,7,34)            106.3414         calculate D2E/DX2 analytically  !
 ! A37   A(7,8,9)              114.2214         calculate D2E/DX2 analytically  !
 ! A38   A(7,8,35)             109.8726         calculate D2E/DX2 analytically  !
 ! A39   A(7,8,36)             107.9358         calculate D2E/DX2 analytically  !
 ! A40   A(9,8,35)             112.0387         calculate D2E/DX2 analytically  !
 ! A41   A(9,8,36)             107.616          calculate D2E/DX2 analytically  !
 ! A42   A(35,8,36)            104.5939         calculate D2E/DX2 analytically  !
 ! A43   A(4,9,8)              114.1745         calculate D2E/DX2 analytically  !
 ! A44   A(4,9,37)             110.4349         calculate D2E/DX2 analytically  !
 ! A45   A(4,9,38)             110.5735         calculate D2E/DX2 analytically  !
 ! A46   A(8,9,37)             110.0986         calculate D2E/DX2 analytically  !
 ! A47   A(8,9,38)             105.3356         calculate D2E/DX2 analytically  !
 ! A48   A(37,9,38)            105.7868         calculate D2E/DX2 analytically  !
 ! A49   A(11,10,24)           119.6793         calculate D2E/DX2 analytically  !
 ! A50   A(11,10,39)           120.7092         calculate D2E/DX2 analytically  !
 ! A51   A(24,10,39)           119.6052         calculate D2E/DX2 analytically  !
 ! A52   A(10,11,12)           119.7487         calculate D2E/DX2 analytically  !
 ! A53   A(10,11,45)           120.2929         calculate D2E/DX2 analytically  !
 ! A54   A(12,11,45)           119.9502         calculate D2E/DX2 analytically  !
 ! A55   A(11,12,13)           119.8917         calculate D2E/DX2 analytically  !
 ! A56   A(11,12,40)           121.1982         calculate D2E/DX2 analytically  !
 ! A57   A(13,12,40)           118.9063         calculate D2E/DX2 analytically  !
 ! A58   A(12,13,23)           121.1679         calculate D2E/DX2 analytically  !
 ! A59   A(12,13,41)           118.801          calculate D2E/DX2 analytically  !
 ! A60   A(23,13,41)           120.031          calculate D2E/DX2 analytically  !
 ! A61   A(1,14,15)            122.8931         calculate D2E/DX2 analytically  !
 ! A62   A(14,15,16)           120.4487         calculate D2E/DX2 analytically  !
 ! A63   A(14,15,17)           117.8516         calculate D2E/DX2 analytically  !
 ! A64   A(16,15,17)           121.696          calculate D2E/DX2 analytically  !
 ! A65   A(3,16,15)            103.9239         calculate D2E/DX2 analytically  !
 ! A66   A(15,17,18)           139.6791         calculate D2E/DX2 analytically  !
 ! A67   A(15,17,20)           119.4344         calculate D2E/DX2 analytically  !
 ! A68   A(18,17,20)           100.8835         calculate D2E/DX2 analytically  !
 ! A69   A(2,18,17)            108.3309         calculate D2E/DX2 analytically  !
 ! A70   A(2,19,20)            106.2584         calculate D2E/DX2 analytically  !
 ! A71   A(2,19,42)            123.8364         calculate D2E/DX2 analytically  !
 ! A72   A(20,19,42)           129.7628         calculate D2E/DX2 analytically  !
 ! A73   A(17,20,19)           113.056          calculate D2E/DX2 analytically  !
 ! A74   A(17,20,21)           119.7814         calculate D2E/DX2 analytically  !
 ! A75   A(19,20,21)           127.1419         calculate D2E/DX2 analytically  !
 ! A76   A(1,21,20)            121.9969         calculate D2E/DX2 analytically  !
 ! A77   A(1,22,23)            127.0754         calculate D2E/DX2 analytically  !
 ! A78   A(1,22,43)            115.3958         calculate D2E/DX2 analytically  !
 ! A79   A(23,22,43)           117.2711         calculate D2E/DX2 analytically  !
 ! A80   A(13,23,22)           118.8267         calculate D2E/DX2 analytically  !
 ! A81   A(13,23,24)           118.5063         calculate D2E/DX2 analytically  !
 ! A82   A(22,23,24)           122.6647         calculate D2E/DX2 analytically  !
 ! A83   A(10,24,23)           120.8217         calculate D2E/DX2 analytically  !
 ! A84   A(10,24,44)           118.9188         calculate D2E/DX2 analytically  !
 ! A85   A(23,24,44)           120.244          calculate D2E/DX2 analytically  !
 ! A86   A(11,45,46)           107.077          calculate D2E/DX2 analytically  !
 ! A87   A(11,45,47)           106.8245         calculate D2E/DX2 analytically  !
 ! A88   A(11,45,48)           107.6217         calculate D2E/DX2 analytically  !
 ! A89   A(46,45,47)           119.5474         calculate D2E/DX2 analytically  !
 ! A90   A(46,45,48)           107.226          calculate D2E/DX2 analytically  !
 ! A91   A(47,45,48)           108.0356         calculate D2E/DX2 analytically  !
 ! A92   A(45,48,49)           118.1821         calculate D2E/DX2 analytically  !
 ! A93   A(45,48,53)           119.3164         calculate D2E/DX2 analytically  !
 ! A94   A(49,48,53)           115.4113         calculate D2E/DX2 analytically  !
 ! A95   A(48,49,50)           110.3579         calculate D2E/DX2 analytically  !
 ! A96   A(48,49,51)           110.1884         calculate D2E/DX2 analytically  !
 ! A97   A(48,49,52)           109.6337         calculate D2E/DX2 analytically  !
 ! A98   A(50,49,51)           108.7416         calculate D2E/DX2 analytically  !
 ! A99   A(50,49,52)           109.669          calculate D2E/DX2 analytically  !
 ! A100  A(51,49,52)           108.2127         calculate D2E/DX2 analytically  !
 ! A101  A(48,53,54)           109.9622         calculate D2E/DX2 analytically  !
 ! A102  A(48,53,55)           110.5712         calculate D2E/DX2 analytically  !
 ! A103  A(48,53,56)           110.2221         calculate D2E/DX2 analytically  !
 ! A104  A(54,53,55)           109.3068         calculate D2E/DX2 analytically  !
 ! A105  A(54,53,56)           108.2239         calculate D2E/DX2 analytically  !
 ! A106  A(55,53,56)           108.5034         calculate D2E/DX2 analytically  !
 ! D1    D(21,1,14,15)          -0.3723         calculate D2E/DX2 analytically  !
 ! D2    D(22,1,14,15)         178.5919         calculate D2E/DX2 analytically  !
 ! D3    D(14,1,21,20)          -0.941          calculate D2E/DX2 analytically  !
 ! D4    D(22,1,21,20)         179.9229         calculate D2E/DX2 analytically  !
 ! D5    D(14,1,22,23)         -17.0492         calculate D2E/DX2 analytically  !
 ! D6    D(14,1,22,43)         168.9859         calculate D2E/DX2 analytically  !
 ! D7    D(21,1,22,23)         161.9618         calculate D2E/DX2 analytically  !
 ! D8    D(21,1,22,43)         -12.0032         calculate D2E/DX2 analytically  !
 ! D9    D(19,2,18,17)           0.3509         calculate D2E/DX2 analytically  !
 ! D10   D(25,2,18,17)         179.0458         calculate D2E/DX2 analytically  !
 ! D11   D(18,2,19,20)          -0.0571         calculate D2E/DX2 analytically  !
 ! D12   D(18,2,19,42)         175.9787         calculate D2E/DX2 analytically  !
 ! D13   D(25,2,19,20)        -178.8134         calculate D2E/DX2 analytically  !
 ! D14   D(25,2,19,42)          -2.7777         calculate D2E/DX2 analytically  !
 ! D15   D(16,3,4,5)           129.1727         calculate D2E/DX2 analytically  !
 ! D16   D(16,3,4,9)          -108.5107         calculate D2E/DX2 analytically  !
 ! D17   D(16,3,4,28)           11.4065         calculate D2E/DX2 analytically  !
 ! D18   D(26,3,4,5)            10.8992         calculate D2E/DX2 analytically  !
 ! D19   D(26,3,4,9)           133.2158         calculate D2E/DX2 analytically  !
 ! D20   D(26,3,4,28)         -106.8671         calculate D2E/DX2 analytically  !
 ! D21   D(27,3,4,5)          -104.122          calculate D2E/DX2 analytically  !
 ! D22   D(27,3,4,9)            18.1946         calculate D2E/DX2 analytically  !
 ! D23   D(27,3,4,28)          138.1118         calculate D2E/DX2 analytically  !
 ! D24   D(4,3,16,15)          163.4859         calculate D2E/DX2 analytically  !
 ! D25   D(26,3,16,15)         -77.4094         calculate D2E/DX2 analytically  !
 ! D26   D(27,3,16,15)          43.9211         calculate D2E/DX2 analytically  !
 ! D27   D(3,4,5,6)            164.9645         calculate D2E/DX2 analytically  !
 ! D28   D(3,4,5,29)            45.8044         calculate D2E/DX2 analytically  !
 ! D29   D(3,4,5,30)           -70.7837         calculate D2E/DX2 analytically  !
 ! D30   D(9,4,5,6)             45.3994         calculate D2E/DX2 analytically  !
 ! D31   D(9,4,5,29)           -73.7607         calculate D2E/DX2 analytically  !
 ! D32   D(9,4,5,30)           169.6512         calculate D2E/DX2 analytically  !
 ! D33   D(28,4,5,6)           -75.5363         calculate D2E/DX2 analytically  !
 ! D34   D(28,4,5,29)          165.3036         calculate D2E/DX2 analytically  !
 ! D35   D(28,4,5,30)           48.7155         calculate D2E/DX2 analytically  !
 ! D36   D(3,4,9,8)           -164.5526         calculate D2E/DX2 analytically  !
 ! D37   D(3,4,9,37)            70.7518         calculate D2E/DX2 analytically  !
 ! D38   D(3,4,9,38)           -45.9892         calculate D2E/DX2 analytically  !
 ! D39   D(5,4,9,8)            -46.1023         calculate D2E/DX2 analytically  !
 ! D40   D(5,4,9,37)          -170.7978         calculate D2E/DX2 analytically  !
 ! D41   D(5,4,9,38)            72.4611         calculate D2E/DX2 analytically  !
 ! D42   D(28,4,9,8)            74.3803         calculate D2E/DX2 analytically  !
 ! D43   D(28,4,9,37)          -50.3152         calculate D2E/DX2 analytically  !
 ! D44   D(28,4,9,38)         -167.0562         calculate D2E/DX2 analytically  !
 ! D45   D(4,5,6,7)            -48.1359         calculate D2E/DX2 analytically  !
 ! D46   D(4,5,6,31)          -173.8634         calculate D2E/DX2 analytically  !
 ! D47   D(4,5,6,32)            71.1339         calculate D2E/DX2 analytically  !
 ! D48   D(29,5,6,7)            72.9625         calculate D2E/DX2 analytically  !
 ! D49   D(29,5,6,31)          -52.765          calculate D2E/DX2 analytically  !
 ! D50   D(29,5,6,32)         -167.7677         calculate D2E/DX2 analytically  !
 ! D51   D(30,5,6,7)          -172.588          calculate D2E/DX2 analytically  !
 ! D52   D(30,5,6,31)           61.6846         calculate D2E/DX2 analytically  !
 ! D53   D(30,5,6,32)          -53.3181         calculate D2E/DX2 analytically  !
 ! D54   D(5,6,7,8)             48.8375         calculate D2E/DX2 analytically  !
 ! D55   D(5,6,7,33)           -71.3873         calculate D2E/DX2 analytically  !
 ! D56   D(5,6,7,34)           172.1111         calculate D2E/DX2 analytically  !
 ! D57   D(31,6,7,8)           174.8605         calculate D2E/DX2 analytically  !
 ! D58   D(31,6,7,33)           54.6357         calculate D2E/DX2 analytically  !
 ! D59   D(31,6,7,34)          -61.8659         calculate D2E/DX2 analytically  !
 ! D60   D(32,6,7,8)           -70.2741         calculate D2E/DX2 analytically  !
 ! D61   D(32,6,7,33)          169.5011         calculate D2E/DX2 analytically  !
 ! D62   D(32,6,7,34)           52.9995         calculate D2E/DX2 analytically  !
 ! D63   D(6,7,8,9)            -48.5808         calculate D2E/DX2 analytically  !
 ! D64   D(6,7,8,35)          -175.4589         calculate D2E/DX2 analytically  !
 ! D65   D(6,7,8,36)            71.0503         calculate D2E/DX2 analytically  !
 ! D66   D(33,7,8,9)            71.8045         calculate D2E/DX2 analytically  !
 ! D67   D(33,7,8,35)          -55.0736         calculate D2E/DX2 analytically  !
 ! D68   D(33,7,8,36)         -168.5644         calculate D2E/DX2 analytically  !
 ! D69   D(34,7,8,9)          -171.8623         calculate D2E/DX2 analytically  !
 ! D70   D(34,7,8,35)           61.2596         calculate D2E/DX2 analytically  !
 ! D71   D(34,7,8,36)          -52.2312         calculate D2E/DX2 analytically  !
 ! D72   D(7,8,9,4)             48.3294         calculate D2E/DX2 analytically  !
 ! D73   D(7,8,9,37)           173.2037         calculate D2E/DX2 analytically  !
 ! D74   D(7,8,9,38)           -73.1715         calculate D2E/DX2 analytically  !
 ! D75   D(35,8,9,4)           174.0786         calculate D2E/DX2 analytically  !
 ! D76   D(35,8,9,37)          -61.0471         calculate D2E/DX2 analytically  !
 ! D77   D(35,8,9,38)           52.5778         calculate D2E/DX2 analytically  !
 ! D78   D(36,8,9,4)           -71.4813         calculate D2E/DX2 analytically  !
 ! D79   D(36,8,9,37)           53.393          calculate D2E/DX2 analytically  !
 ! D80   D(36,8,9,38)          167.0179         calculate D2E/DX2 analytically  !
 ! D81   D(24,10,11,12)          2.9076         calculate D2E/DX2 analytically  !
 ! D82   D(24,10,11,45)       -178.1295         calculate D2E/DX2 analytically  !
 ! D83   D(39,10,11,12)       -178.0078         calculate D2E/DX2 analytically  !
 ! D84   D(39,10,11,45)          0.9552         calculate D2E/DX2 analytically  !
 ! D85   D(11,10,24,23)          0.6418         calculate D2E/DX2 analytically  !
 ! D86   D(11,10,24,44)        179.2096         calculate D2E/DX2 analytically  !
 ! D87   D(39,10,24,23)       -178.4531         calculate D2E/DX2 analytically  !
 ! D88   D(39,10,24,44)          0.1148         calculate D2E/DX2 analytically  !
 ! D89   D(10,11,12,13)         -3.0669         calculate D2E/DX2 analytically  !
 ! D90   D(10,11,12,40)        176.2142         calculate D2E/DX2 analytically  !
 ! D91   D(45,11,12,13)        177.9665         calculate D2E/DX2 analytically  !
 ! D92   D(45,11,12,40)         -2.7524         calculate D2E/DX2 analytically  !
 ! D93   D(10,11,45,46)         21.0902         calculate D2E/DX2 analytically  !
 ! D94   D(10,11,45,47)       -108.0966         calculate D2E/DX2 analytically  !
 ! D95   D(10,11,45,48)        136.0909         calculate D2E/DX2 analytically  !
 ! D96   D(12,11,45,46)       -159.9489         calculate D2E/DX2 analytically  !
 ! D97   D(12,11,45,47)         70.8643         calculate D2E/DX2 analytically  !
 ! D98   D(12,11,45,48)        -44.9482         calculate D2E/DX2 analytically  !
 ! D99   D(11,12,13,23)         -0.3458         calculate D2E/DX2 analytically  !
 ! D100  D(11,12,13,41)        179.5267         calculate D2E/DX2 analytically  !
 ! D101  D(40,12,13,23)       -179.6434         calculate D2E/DX2 analytically  !
 ! D102  D(40,12,13,41)          0.2292         calculate D2E/DX2 analytically  !
 ! D103  D(12,13,23,22)       -176.7151         calculate D2E/DX2 analytically  !
 ! D104  D(12,13,23,24)          3.8295         calculate D2E/DX2 analytically  !
 ! D105  D(41,13,23,22)          3.4139         calculate D2E/DX2 analytically  !
 ! D106  D(41,13,23,24)       -176.0415         calculate D2E/DX2 analytically  !
 ! D107  D(1,14,15,16)        -179.5335         calculate D2E/DX2 analytically  !
 ! D108  D(1,14,15,17)           1.1588         calculate D2E/DX2 analytically  !
 ! D109  D(14,15,16,3)          18.2854         calculate D2E/DX2 analytically  !
 ! D110  D(17,15,16,3)        -162.4339         calculate D2E/DX2 analytically  !
 ! D111  D(14,15,17,18)       -179.8954         calculate D2E/DX2 analytically  !
 ! D112  D(14,15,17,20)         -0.6675         calculate D2E/DX2 analytically  !
 ! D113  D(16,15,17,18)          0.806          calculate D2E/DX2 analytically  !
 ! D114  D(16,15,17,20)       -179.9661         calculate D2E/DX2 analytically  !
 ! D115  D(15,17,18,2)         178.8317         calculate D2E/DX2 analytically  !
 ! D116  D(20,17,18,2)          -0.4835         calculate D2E/DX2 analytically  !
 ! D117  D(15,17,20,19)       -179.0241         calculate D2E/DX2 analytically  !
 ! D118  D(15,17,20,21)         -0.5623         calculate D2E/DX2 analytically  !
 ! D119  D(18,17,20,19)          0.4672         calculate D2E/DX2 analytically  !
 ! D120  D(18,17,20,21)        178.9289         calculate D2E/DX2 analytically  !
 ! D121  D(2,19,20,17)          -0.2906         calculate D2E/DX2 analytically  !
 ! D122  D(2,19,20,21)        -178.6158         calculate D2E/DX2 analytically  !
 ! D123  D(42,19,20,17)       -176.0064         calculate D2E/DX2 analytically  !
 ! D124  D(42,19,20,21)          5.6685         calculate D2E/DX2 analytically  !
 ! D125  D(17,20,21,1)           1.4077         calculate D2E/DX2 analytically  !
 ! D126  D(19,20,21,1)         179.6321         calculate D2E/DX2 analytically  !
 ! D127  D(1,22,23,13)         153.9251         calculate D2E/DX2 analytically  !
 ! D128  D(1,22,23,24)         -26.6433         calculate D2E/DX2 analytically  !
 ! D129  D(43,22,23,13)        -32.2089         calculate D2E/DX2 analytically  !
 ! D130  D(43,22,23,24)        147.2226         calculate D2E/DX2 analytically  !
 ! D131  D(13,23,24,10)         -3.9712         calculate D2E/DX2 analytically  !
 ! D132  D(13,23,24,44)        177.4799         calculate D2E/DX2 analytically  !
 ! D133  D(22,23,24,10)        176.5955         calculate D2E/DX2 analytically  !
 ! D134  D(22,23,24,44)         -1.9534         calculate D2E/DX2 analytically  !
 ! D135  D(11,45,48,49)        -65.66           calculate D2E/DX2 analytically  !
 ! D136  D(11,45,48,53)         83.5677         calculate D2E/DX2 analytically  !
 ! D137  D(46,45,48,49)         49.2419         calculate D2E/DX2 analytically  !
 ! D138  D(46,45,48,53)       -161.5304         calculate D2E/DX2 analytically  !
 ! D139  D(47,45,48,49)        179.328          calculate D2E/DX2 analytically  !
 ! D140  D(47,45,48,53)        -31.4444         calculate D2E/DX2 analytically  !
 ! D141  D(45,48,49,50)       -153.261          calculate D2E/DX2 analytically  !
 ! D142  D(45,48,49,51)        -33.1565         calculate D2E/DX2 analytically  !
 ! D143  D(45,48,49,52)         85.8387         calculate D2E/DX2 analytically  !
 ! D144  D(53,48,49,50)         56.3355         calculate D2E/DX2 analytically  !
 ! D145  D(53,48,49,51)        176.44           calculate D2E/DX2 analytically  !
 ! D146  D(53,48,49,52)        -64.5649         calculate D2E/DX2 analytically  !
 ! D147  D(45,48,53,54)        150.6011         calculate D2E/DX2 analytically  !
 ! D148  D(45,48,53,55)        -88.5993         calculate D2E/DX2 analytically  !
 ! D149  D(45,48,53,56)         31.367          calculate D2E/DX2 analytically  !
 ! D150  D(49,48,53,54)        -59.3514         calculate D2E/DX2 analytically  !
 ! D151  D(49,48,53,55)         61.4482         calculate D2E/DX2 analytically  !
 ! D152  D(49,48,53,56)       -178.5854         calculate D2E/DX2 analytically  !
 --------------------------------------------------------------------------------
 Trust Radius=3.00D-01 FncErr=1.00D-07 GrdErr=1.00D-07 EigMax=2.50D+02 EigMin=1.00D-04
 Number of steps in this run=    327 maximum allowed number of steps=    336.
 GradGradGradGradGradGradGradGradGradGradGradGradGradGradGradGradGradGrad

 Leave Link  103 at Thu Jan 30 14:40:31 2025, MaxMem=   104857600 cpu:               0.0 elap:               0.0
 (Enter /home/pb777/GAUSSIAN/g16/l202.exe)
 Stoichiometry    C20H26N6O3S
 Framework group  C1[X(C20H26N6O3S)]
 Deg. of freedom   162
 Full point group                 C1      NOp   1
 Largest Abelian subgroup         C1      NOp   1
 Largest concise Abelian subgroup C1      NOp   1
                         Standard orientation:                         
 ---------------------------------------------------------------------
 Center     Atomic      Atomic             Coordinates (Angstroms)
 Number     Number       Type             X           Y           Z
 ---------------------------------------------------------------------
      1          6           0       -1.590347   -2.363679    0.044396
      2          6           0       -5.971504   -2.972898   -0.060221
      3          6           0       -2.338771    1.373218    0.467317
      4          6           0       -2.683067    2.879728    0.362981
      5          6           0       -1.695500    3.627876    1.282232
      6          6           0       -1.644696    5.144621    1.031539
      7          6           0       -1.504676    5.572406   -0.436562
      8          6           0       -2.522538    4.843715   -1.342825
      9          6           0       -2.577056    3.316249   -1.132781
     10          6           0        2.027994   -0.178297   -1.019851
     11          6           0        3.213669   -0.748016   -0.547168
     12          6           0        3.198386   -2.037761   -0.017187
     13          6           0        1.995964   -2.725343    0.097349
     14          7           0       -1.996882   -0.998956    0.371248
     15          6           0       -3.234321   -0.637235    0.458612
     16          8           0       -3.552782    0.634193    0.753386
     17          6           0       -4.252568   -1.647877    0.244087
     18          7           0       -5.681514   -1.773932    0.224195
     19          7           0       -4.893622   -3.699125   -0.233786
     20          6           0       -3.883958   -2.902258   -0.046873
     21          7           0       -2.501283   -3.226440   -0.153988
     22          7           0       -0.399816   -2.858886   -0.100161
     23          6           0        0.794879   -2.147285   -0.302272
     24          6           0        0.828853   -0.881166   -0.901633
     25          1           0       -6.957001   -3.385644   -0.137007
     26          1           0       -1.635540    1.212689    1.293035
     27          1           0       -1.807278    1.129355   -0.462161
     28          1           0       -3.695835    3.073452    0.719667
     29          1           0       -0.681757    3.253774    1.120659
     30          1           0       -1.926386    3.429499    2.330764
     31          1           0       -0.857587    5.604431    1.629288
     32          1           0       -2.581715    5.557361    1.398652
     33          1           0       -0.496121    5.337265   -0.781375
     34          1           0       -1.616959    6.653255   -0.530605
     35          1           0       -2.346054    5.105936   -2.380911
     36          1           0       -3.514878    5.243186   -1.122983
     37          1           0       -3.394703    2.886812   -1.713830
     38          1           0       -1.659227    2.930139   -1.581083
     39          1           0        2.027618    0.808623   -1.463397
     40          1           0        4.108515   -2.522936    0.298394
     41          1           0        2.005447   -3.720076    0.500621
     42          1           0       -4.907985   -4.705837   -0.411620
     43          1           0       -0.353567   -3.866206   -0.156112
     44          1           0       -0.081363   -0.424273   -1.259048
     45         16           0        4.757222    0.162031   -0.645314
     46          8           0        4.412595    1.583142   -0.766854
     47          8           0        5.561931   -0.478718   -1.690052
     48          7           0        5.607399   -0.045007    0.913049
     49          6           0        4.992420    0.535857    2.127248
     50          1           0        5.758924    0.765503    2.867903
     51          1           0        4.460480    1.454476    1.877078
     52          1           0        4.275189   -0.169494    2.547934
     53          6           0        6.432122   -1.258560    1.135205
     54          1           0        7.248815   -1.033091    1.821402
     55          1           0        5.825172   -2.063520    1.549500
     56          1           0        6.862614   -1.599462    0.192968
 ---------------------------------------------------------------------
 Rotational constants (GHZ):           0.1613817           0.0796746           0.0572554
 Leave Link  202 at Thu Jan 30 14:40:31 2025, MaxMem=   104857600 cpu:               0.0 elap:               0.0
 (Enter /home/pb777/GAUSSIAN/g16/l301.exe)
 Standard basis: 6-31G(d) (6D, 7F)
 Ernie: Thresh=  0.10000D-02 Tol=  0.10000D-05 Strict=F.
 There are   506 symmetry adapted cartesian basis functions of A   symmetry.
 There are   506 symmetry adapted basis functions of A   symmetry.
   506 basis functions,   968 primitive gaussians,   506 cartesian basis functions
   114 alpha electrons      114 beta electrons
       nuclear repulsion energy      3061.1516177181 Hartrees.
 IExCor=    0 DFT=F Ex=HF Corr=None ExCW=0 ScaHFX=  1.000000
 ScaDFX=  1.000000  1.000000  1.000000  1.000000 ScalE2=  1.000000  1.000000
 IRadAn=      5 IRanWt=     -1 IRanGd=            0 ICorTp=0 IEmpDi=  4
 NAtoms=   56 NActive=   56 NUniq=   56 SFac= 1.00D+00 NAtFMM=   60 NAOKFM=F Big=F
 Integral buffers will be    131072 words long.
 Raffenetti 1 integral format.
 Two-electron integral symmetry is turned on.
 Leave Link  301 at Thu Jan 30 14:40:31 2025, MaxMem=   104857600 cpu:               0.0 elap:               0.0
 (Enter /home/pb777/GAUSSIAN/g16/l302.exe)
 NPDir=0 NMtPBC=     1 NCelOv=     1 NCel=       1 NClECP=     1 NCelD=      1
         NCelK=      1 NCelE2=     1 NClLst=     1 CellRange=     0.0.
 One-electron integrals computed using PRISM.
 One-electron integral symmetry used in STVInt
 NBasis=   506 RedAO= T EigKep=  4.22D-04  NBF=   506
 NBsUse=   506 1.00D-06 EigRej= -1.00D+00 NBFU=   506
 Leave Link  302 at Thu Jan 30 14:40:31 2025, MaxMem=   104857600 cpu:               0.2 elap:               0.2
 (Enter /home/pb777/GAUSSIAN/g16/l303.exe)
 DipDrv:  MaxL=1.
 Leave Link  303 at Thu Jan 30 14:40:31 2025, MaxMem=   104857600 cpu:               0.0 elap:               0.0
 (Enter /home/pb777/GAUSSIAN/g16/l401.exe)
 ExpMin= 1.17D-01 ExpMax= 2.19D+04 ExpMxC= 3.30D+03 IAcc=3 IRadAn=         5 AccDes= 0.00D+00
 Harris functional with IExCor=  205 and IRadAn=       5 diagonalized for initial guess.
 HarFok:  IExCor=  205 AccDes= 0.00D+00 IRadAn=         5 IDoV= 1 UseB2=F ITyADJ=14
 ICtDFT=  3500011 ScaDFX=  1.000000  1.000000  1.000000  1.000000
 FoFCou: FMM=F IPFlag=           0 FMFlag=      100000 FMFlg1=           0
         NFxFlg=           0 DoJE=T BraDBF=F KetDBF=T FulRan=T
         wScrn=  0.000000 ICntrl=       500 IOpCl=  0 I1Cent=   200000004 NGrid=           0
         NMat0=    1 NMatS0=      1 NMatT0=    0 NMatD0=    1 NMtDS0=    0 NMtDT0=    0
 Petite list used in FoFCou.
 Harris En= -1722.51863079539    
 JPrj=0 DoOrth=F DoCkMO=F.
 Leave Link  401 at Thu Jan 30 14:40:42 2025, MaxMem=   104857600 cpu:              10.5 elap:              10.6
 (Enter /home/pb777/GAUSSIAN/g16/l502.exe)
 Integral symmetry usage will be decided dynamically.
 Closed shell SCF:
 Using DIIS extrapolation, IDIIS=  1040.
 NGot=   104857600 LenX=   104336869 LenY=   104080327
 Requested convergence on RMS density matrix=1.00D-08 within 128 cycles.
 Requested convergence on MAX density matrix=1.00D-06.
 Requested convergence on             energy=1.00D-06.
 No special actions if energy rises.
 Fock matrices will be formed incrementally for  20 cycles.
 Integral accuracy reduced to 1.0D-05 until final iterations.

 Cycle   1  Pass 0  IDiag  1:
 FoFJK:  IHMeth= 1 ICntrl=       0 DoSepK=F KAlg= 0 I1Cent=           0 FoldK=F
 IRaf= 630000000 NMat=       1 IRICut=       1 DoRegI=T DoRafI=F ISym2E= 0 IDoP0=0 IntGTp=1.
 FoFCou: FMM=F IPFlag=           0 FMFlag=      100000 FMFlg1=           0
         NFxFlg=           0 DoJE=F BraDBF=F KetDBF=F FulRan=T
         wScrn=  0.000000 ICntrl=         0 IOpCl=  0 I1Cent=           0 NGrid=           0
         NMat0=    1 NMatS0=      1 NMatT0=    0 NMatD0=    1 NMtDS0=    0 NMtDT0=    0
 Symmetry not used in FoFCou.
 E= -1719.89428122746    
 DIIS: error= 4.17D-02 at cycle   1 NSaved=   1.
 NSaved= 1 IEnMin= 1 EnMin= -1719.89428122746     IErMin= 1 ErrMin= 4.17D-02
 ErrMax= 4.17D-02  0.00D+00 EMaxC= 1.00D-01 BMatC= 2.14D+00 BMatP= 2.14D+00
 IDIUse=3 WtCom= 5.83D-01 WtEn= 4.17D-01
 Coeff-Com:  0.100D+01
 Coeff-En:   0.100D+01
 Coeff:      0.100D+01
 Gap=     0.494 Goal=   None    Shift=    0.000
 GapD=    0.494 DampG=2.000 DampE=0.500 DampFc=1.0000 IDamp=-1.
 RMSDP=3.41D-03 MaxDP=1.98D-01              OVMax= 1.34D-01

 Cycle   2  Pass 0  IDiag  1:
 RMSU=  3.35D-03    CP:  9.60D-01
 E= -1720.88075838372     Delta-E=       -0.986477156257 Rises=F Damp=F
 DIIS: error= 1.79D-02 at cycle   2 NSaved=   2.
 NSaved= 2 IEnMin= 2 EnMin= -1720.88075838372     IErMin= 2 ErrMin= 1.79D-02
 ErrMax= 1.79D-02  0.00D+00 EMaxC= 1.00D-01 BMatC= 3.05D-01 BMatP= 2.14D+00
 IDIUse=3 WtCom= 8.21D-01 WtEn= 1.79D-01
 Coeff-Com:  0.203D+00 0.797D+00
 Coeff-En:   0.000D+00 0.100D+01
 Coeff:      0.166D+00 0.834D+00
 Gap=     0.423 Goal=   None    Shift=    0.000
 RMSDP=1.39D-03 MaxDP=1.88D-01 DE=-9.86D-01 OVMax= 6.98D-02

 Cycle   3  Pass 0  IDiag  1:
 RMSU=  1.15D-03    CP:  9.63D-01  7.70D-01
 E= -1721.09408216570     Delta-E=       -0.213323781978 Rises=F Damp=F
 DIIS: error= 9.88D-03 at cycle   3 NSaved=   3.
 NSaved= 3 IEnMin= 3 EnMin= -1721.09408216570     IErMin= 3 ErrMin= 9.88D-03
 ErrMax= 9.88D-03  0.00D+00 EMaxC= 1.00D-01 BMatC= 4.70D-02 BMatP= 3.05D-01
 IDIUse=3 WtCom= 9.01D-01 WtEn= 9.88D-02
 Coeff-Com: -0.190D-01 0.256D+00 0.763D+00
 Coeff-En:   0.000D+00 0.000D+00 0.100D+01
 Coeff:     -0.172D-01 0.230D+00 0.787D+00
 Gap=     0.390 Goal=   None    Shift=    0.000
 RMSDP=4.25D-04 MaxDP=5.93D-02 DE=-2.13D-01 OVMax= 2.69D-02

 Cycle   4  Pass 0  IDiag  1:
 RMSU=  2.58D-04    CP:  9.62D-01  8.48D-01  8.16D-01
 E= -1721.13015747962     Delta-E=       -0.036075313922 Rises=F Damp=F
 DIIS: error= 1.97D-03 at cycle   4 NSaved=   4.
 NSaved= 4 IEnMin= 4 EnMin= -1721.13015747962     IErMin= 4 ErrMin= 1.97D-03
 ErrMax= 1.97D-03  0.00D+00 EMaxC= 1.00D-01 BMatC= 2.40D-03 BMatP= 4.70D-02
 IDIUse=3 WtCom= 9.80D-01 WtEn= 1.97D-02
 Coeff-Com: -0.108D-01 0.453D-01 0.254D+00 0.711D+00
 Coeff-En:   0.000D+00 0.000D+00 0.000D+00 0.100D+01
 Coeff:     -0.106D-01 0.444D-01 0.249D+00 0.717D+00
 Gap=     0.393 Goal=   None    Shift=    0.000
 RMSDP=1.07D-04 MaxDP=9.87D-03 DE=-3.61D-02 OVMax= 8.31D-03

 Cycle   5  Pass 0  IDiag  1:
 RMSU=  7.10D-05    CP:  9.62D-01  8.48D-01  8.70D-01  8.14D-01
 E= -1721.13230213957     Delta-E=       -0.002144659948 Rises=F Damp=F
 DIIS: error= 4.99D-04 at cycle   5 NSaved=   5.
 NSaved= 5 IEnMin= 5 EnMin= -1721.13230213957     IErMin= 5 ErrMin= 4.99D-04
 ErrMax= 4.99D-04  0.00D+00 EMaxC= 1.00D-01 BMatC= 1.36D-04 BMatP= 2.40D-03
 IDIUse=3 WtCom= 9.95D-01 WtEn= 4.99D-03
 Coeff-Com:  0.567D-03-0.164D-01-0.435D-01 0.903D-01 0.969D+00
 Coeff-En:   0.000D+00 0.000D+00 0.000D+00 0.000D+00 0.100D+01
 Coeff:      0.564D-03-0.163D-01-0.433D-01 0.899D-01 0.969D+00
 Gap=     0.393 Goal=   None    Shift=    0.000
 RMSDP=4.02D-05 MaxDP=1.61D-03 DE=-2.14D-03 OVMax= 4.14D-03

 Cycle   6  Pass 0  IDiag  1:
 RMSU=  2.52D-05    CP:  9.62D-01  8.49D-01  8.83D-01  9.16D-01  1.09D+00
 E= -1721.13252529187     Delta-E=       -0.000223152305 Rises=F Damp=F
 DIIS: error= 2.47D-04 at cycle   6 NSaved=   6.
 NSaved= 6 IEnMin= 6 EnMin= -1721.13252529187     IErMin= 6 ErrMin= 2.47D-04
 ErrMax= 2.47D-04  0.00D+00 EMaxC= 1.00D-01 BMatC= 1.69D-05 BMatP= 1.36D-04
 IDIUse=3 WtCom= 9.98D-01 WtEn= 2.47D-03
 Coeff-Com:  0.132D-02-0.868D-02-0.392D-01-0.669D-01 0.164D+00 0.949D+00
 Coeff-En:   0.000D+00 0.000D+00 0.000D+00 0.000D+00 0.000D+00 0.100D+01
 Coeff:      0.132D-02-0.866D-02-0.391D-01-0.668D-01 0.164D+00 0.950D+00
 Gap=     0.394 Goal=   None    Shift=    0.000
 RMSDP=1.62D-05 MaxDP=1.09D-03 DE=-2.23D-04 OVMax= 1.81D-03

 Cycle   7  Pass 0  IDiag  1:
 RMSU=  8.97D-06    CP:  9.62D-01  8.49D-01  8.87D-01  9.38D-01  1.25D+00
                    CP:  1.10D+00
 E= -1721.13256492657     Delta-E=       -0.000039634696 Rises=F Damp=F
 DIIS: error= 6.79D-05 at cycle   7 NSaved=   7.
 NSaved= 7 IEnMin= 7 EnMin= -1721.13256492657     IErMin= 7 ErrMin= 6.79D-05
 ErrMax= 6.79D-05  0.00D+00 EMaxC= 1.00D-01 BMatC= 2.65D-06 BMatP= 1.69D-05
 IDIUse=1 WtCom= 1.00D+00 WtEn= 0.00D+00
 Coeff-Com:  0.121D-03 0.704D-03-0.513D-03-0.210D-01-0.971D-01 0.146D+00
 Coeff-Com:  0.972D+00
 Coeff:      0.121D-03 0.704D-03-0.513D-03-0.210D-01-0.971D-01 0.146D+00
 Coeff:      0.972D+00
 Gap=     0.394 Goal=   None    Shift=    0.000
 RMSDP=6.69D-06 MaxDP=2.83D-04 DE=-3.96D-05 OVMax= 9.86D-04

 Initial convergence to 1.0D-05 achieved.  Increase integral accuracy.
 Cycle   8  Pass 1  IDiag  1:
 E= -1721.13257294672     Delta-E=       -0.000008020156 Rises=F Damp=F
 DIIS: error= 5.95D-05 at cycle   1 NSaved=   1.
 NSaved= 1 IEnMin= 1 EnMin= -1721.13257294672     IErMin= 1 ErrMin= 5.95D-05
 ErrMax= 5.95D-05  0.00D+00 EMaxC= 1.00D-01 BMatC= 1.83D-06 BMatP= 1.83D-06
 IDIUse=1 WtCom= 1.00D+00 WtEn= 0.00D+00
 Coeff-Com:  0.100D+01
 Coeff:      0.100D+01
 Gap=     0.395 Goal=   None    Shift=    0.000
 RMSDP=6.69D-06 MaxDP=2.83D-04 DE=-8.02D-06 OVMax= 4.07D-04

 Cycle   9  Pass 1  IDiag  1:
 RMSU=  2.44D-05    CP:  1.00D+00
 E= -1721.13257507670     Delta-E=       -0.000002129972 Rises=F Damp=F
 DIIS: error= 2.18D-05 at cycle   2 NSaved=   2.
 NSaved= 2 IEnMin= 2 EnMin= -1721.13257507670     IErMin= 2 ErrMin= 2.18D-05
 ErrMax= 2.18D-05  0.00D+00 EMaxC= 1.00D-01 BMatC= 1.93D-07 BMatP= 1.83D-06
 IDIUse=1 WtCom= 1.00D+00 WtEn= 0.00D+00
 Coeff-Com:  0.502D-01 0.950D+00
 Coeff:      0.502D-01 0.950D+00
 Gap=     0.395 Goal=   None    Shift=    0.000
 RMSDP=1.91D-06 MaxDP=8.35D-05 DE=-2.13D-06 OVMax= 2.66D-04

 Cycle  10  Pass 1  IDiag  1:
 RMSU=  1.59D-06    CP:  1.00D+00  1.04D+00
 E= -1721.13257547098     Delta-E=       -0.000000394287 Rises=F Damp=F
 DIIS: error= 2.55D-05 at cycle   3 NSaved=   3.
 NSaved= 3 IEnMin= 3 EnMin= -1721.13257547098     IErMin= 2 ErrMin= 2.18D-05
 ErrMax= 2.55D-05  0.00D+00 EMaxC= 1.00D-01 BMatC= 8.80D-08 BMatP= 1.93D-07
 IDIUse=1 WtCom= 1.00D+00 WtEn= 0.00D+00
 Coeff-Com: -0.652D-01 0.323D+00 0.742D+00
 Coeff:     -0.652D-01 0.323D+00 0.742D+00
 Gap=     0.395 Goal=   None    Shift=    0.000
 RMSDP=8.21D-07 MaxDP=4.22D-05 DE=-3.94D-07 OVMax= 1.58D-04

 Cycle  11  Pass 1  IDiag  1:
 RMSU=  7.85D-07    CP:  1.00D+00  1.05D+00  1.02D+00
 E= -1721.13257564942     Delta-E=       -0.000000178437 Rises=F Damp=F
 DIIS: error= 8.55D-06 at cycle   4 NSaved=   4.
 NSaved= 4 IEnMin= 4 EnMin= -1721.13257564942     IErMin= 4 ErrMin= 8.55D-06
 ErrMax= 8.55D-06  0.00D+00 EMaxC= 1.00D-01 BMatC= 1.90D-08 BMatP= 8.80D-08
 IDIUse=1 WtCom= 1.00D+00 WtEn= 0.00D+00
 Coeff-Com:  0.131D-01-0.473D+00-0.341D+00 0.180D+01
 Coeff:      0.131D-01-0.473D+00-0.341D+00 0.180D+01
 Gap=     0.395 Goal=   None    Shift=    0.000
 RMSDP=1.10D-06 MaxDP=5.83D-05 DE=-1.78D-07 OVMax= 1.99D-04

 Cycle  12  Pass 1  IDiag  1:
 RMSU=  3.05D-07    CP:  1.00D+00  1.06D+00  1.51D+00  1.91D+00
 E= -1721.13257575981     Delta-E=       -0.000000110388 Rises=F Damp=F
 DIIS: error= 3.11D-06 at cycle   5 NSaved=   5.
 NSaved= 5 IEnMin= 5 EnMin= -1721.13257575981     IErMin= 5 ErrMin= 3.11D-06
 ErrMax= 3.11D-06  0.00D+00 EMaxC= 1.00D-01 BMatC= 1.74D-09 BMatP= 1.90D-08
 IDIUse=1 WtCom= 1.00D+00 WtEn= 0.00D+00
 Coeff-Com:  0.984D-02-0.170D+00-0.172D+00 0.541D+00 0.791D+00
 Coeff:      0.984D-02-0.170D+00-0.172D+00 0.541D+00 0.791D+00
 Gap=     0.395 Goal=   None    Shift=    0.000
 RMSDP=1.85D-07 MaxDP=8.29D-06 DE=-1.10D-07 OVMax= 3.56D-05

 Cycle  13  Pass 1  IDiag  1:
 RMSU=  9.23D-08    CP:  1.00D+00  1.06D+00  1.56D+00  2.07D+00  1.11D+00
 E= -1721.13257576470     Delta-E=       -0.000000004892 Rises=F Damp=F
 DIIS: error= 9.15D-07 at cycle   6 NSaved=   6.
 NSaved= 6 IEnMin= 6 EnMin= -1721.13257576470     IErMin= 6 ErrMin= 9.15D-07
 ErrMax= 9.15D-07  0.00D+00 EMaxC= 1.00D-01 BMatC= 2.64D-10 BMatP= 1.74D-09
 IDIUse=1 WtCom= 1.00D+00 WtEn= 0.00D+00
 Coeff-Com: -0.383D-02 0.110D+00 0.799D-01-0.390D+00-0.117D+00 0.132D+01
 Coeff:     -0.383D-02 0.110D+00 0.799D-01-0.390D+00-0.117D+00 0.132D+01
 Gap=     0.395 Goal=   None    Shift=    0.000
 RMSDP=1.03D-07 MaxDP=4.98D-06 DE=-4.89D-09 OVMax= 1.69D-05

 Cycle  14  Pass 1  IDiag  1:
 RMSU=  5.35D-08    CP:  1.00D+00  1.05D+00  1.58D+00  2.12D+00  1.31D+00
                    CP:  1.45D+00
 E= -1721.13257576582     Delta-E=       -0.000000001124 Rises=F Damp=F
 DIIS: error= 3.86D-07 at cycle   7 NSaved=   7.
 NSaved= 7 IEnMin= 7 EnMin= -1721.13257576582     IErMin= 7 ErrMin= 3.86D-07
 ErrMax= 3.86D-07  0.00D+00 EMaxC= 1.00D-01 BMatC= 5.16D-11 BMatP= 2.64D-10
 IDIUse=1 WtCom= 1.00D+00 WtEn= 0.00D+00
 Coeff-Com: -0.293D-02 0.628D-01 0.532D-01-0.208D+00-0.181D+00 0.372D+00
 Coeff-Com:  0.904D+00
 Coeff:     -0.293D-02 0.628D-01 0.532D-01-0.208D+00-0.181D+00 0.372D+00
 Coeff:      0.904D+00
 Gap=     0.395 Goal=   None    Shift=    0.000
 RMSDP=3.70D-08 MaxDP=2.20D-06 DE=-1.12D-09 OVMax= 5.76D-06

 Cycle  15  Pass 1  IDiag  1:
 RMSU=  1.81D-08    CP:  1.00D+00  1.05D+00  1.58D+00  2.14D+00  1.36D+00
                    CP:  1.67D+00  1.29D+00
 E= -1721.13257576602     Delta-E=       -0.000000000196 Rises=F Damp=F
 DIIS: error= 1.08D-07 at cycle   8 NSaved=   8.
 NSaved= 8 IEnMin= 8 EnMin= -1721.13257576602     IErMin= 8 ErrMin= 1.08D-07
 ErrMax= 1.08D-07  0.00D+00 EMaxC= 1.00D-01 BMatC= 4.51D-12 BMatP= 5.16D-11
 IDIUse=1 WtCom= 1.00D+00 WtEn= 0.00D+00
 Coeff-Com:  0.390D-03-0.119D-01-0.933D-02 0.443D-01 0.102D-01-0.157D+00
 Coeff-Com:  0.921D-02 0.111D+01
 Coeff:      0.390D-03-0.119D-01-0.933D-02 0.443D-01 0.102D-01-0.157D+00
 Coeff:      0.921D-02 0.111D+01
 Gap=     0.395 Goal=   None    Shift=    0.000
 RMSDP=1.33D-08 MaxDP=5.87D-07 DE=-1.96D-10 OVMax= 1.85D-06

 Cycle  16  Pass 1  IDiag  1:
 RMSU=  6.26D-09    CP:  1.00D+00  1.05D+00  1.58D+00  2.14D+00  1.37D+00
                    CP:  1.73D+00  1.46D+00  1.21D+00
 E= -1721.13257576601     Delta-E=        0.000000000011 Rises=F Damp=F
 DIIS: error= 5.25D-08 at cycle   9 NSaved=   9.
 NSaved= 9 IEnMin= 8 EnMin= -1721.13257576602     IErMin= 9 ErrMin= 5.25D-08
 ErrMax= 5.25D-08  0.00D+00 EMaxC= 1.00D-01 BMatC= 7.73D-13 BMatP= 4.51D-12
 IDIUse=1 WtCom= 1.00D+00 WtEn= 0.00D+00
 Coeff-Com:  0.363D-03-0.810D-02-0.698D-02 0.276D-01 0.213D-01-0.585D-01
 Coeff-Com: -0.115D+00 0.121D+00 0.102D+01
 Coeff:      0.363D-03-0.810D-02-0.698D-02 0.276D-01 0.213D-01-0.585D-01
 Coeff:     -0.115D+00 0.121D+00 0.102D+01
 Gap=     0.395 Goal=   None    Shift=    0.000
 RMSDP=4.68D-09 MaxDP=2.25D-07 DE= 1.09D-11 OVMax= 7.37D-07

 SCF Done:  E(RHF) =  -1721.13257577     A.U. after   16 cycles
            NFock= 16  Conv=0.47D-08     -V/T= 2.0018
 KE= 1.717991233074D+03 PE=-1.016083717060D+04 EE= 3.660561744046D+03
 Leave Link  502 at Thu Jan 30 14:43:18 2025, MaxMem=   104857600 cpu:             155.1 elap:             155.7
 (Enter /home/pb777/GAUSSIAN/g16/l801.exe)
 Range of M.O.s used for correlation:     1   506
 NBasis=   506 NAE=   114 NBE=   114 NFC=     0 NFV=     0
 NROrb=    506 NOA=   114 NOB=   114 NVA=   392 NVB=   392
 Leave Link  801 at Thu Jan 30 14:43:18 2025, MaxMem=   104857600 cpu:               0.0 elap:               0.0
 (Enter /home/pb777/GAUSSIAN/g16/l1101.exe)
 Using compressed storage, NAtomX=    56.
 Will process     57 centers per pass.
 Leave Link 1101 at Thu Jan 30 14:43:18 2025, MaxMem=   104857600 cpu:               0.6 elap:               0.6
 (Enter /home/pb777/GAUSSIAN/g16/l1102.exe)
 Symmetrizing basis deriv contribution to polar:
 IMax=3 JMax=2 DiffMx= 0.00D+00
 Leave Link 1102 at Thu Jan 30 14:43:18 2025, MaxMem=   104857600 cpu:               0.1 elap:               0.1
 (Enter /home/pb777/GAUSSIAN/g16/l1110.exe)
 Forming Gx(P) for the SCF density, NAtomX=    56.
 Integral derivatives from FoFJK, PRISM(SPDF).
 Do as many integral derivatives as possible in FoFJK.
 G2DrvN: MDV=     104853432.
 G2DrvN: will do    57 centers at a time, making    1 passes.
 Calling FoFCou, ICntrl=  3107 FMM=F I1Cent=   0 AccDes= 0.00D+00.
 FoFJK:  IHMeth= 1 ICntrl=    3107 DoSepK=F KAlg= 0 I1Cent=           0 FoldK=F
 IRaf=         0 NMat=       1 IRICut=       1 DoRegI=T DoRafI=F ISym2E= 0 IDoP0=0 IntGTp=1.
 FoFCou: FMM=F IPFlag=           0 FMFlag=      100000 FMFlg1=           0
         NFxFlg=           0 DoJE=F BraDBF=F KetDBF=F FulRan=T
         wScrn=  0.000000 ICntrl=      3107 IOpCl=  0 I1Cent=           0 NGrid=           0
         NMat0=    1 NMatS0=      1 NMatT0=    0 NMatD0=    1 NMtDS0=    0 NMtDT0=    0
 Symmetry not used in FoFCou.
 End of G2Drv F.D. properties file   721 does not exist.
 End of G2Drv F.D. properties file   722 does not exist.
 End of G2Drv F.D. properties file   788 does not exist.
 Leave Link 1110 at Thu Jan 30 14:45:50 2025, MaxMem=   104857600 cpu:             151.4 elap:             152.2
 (Enter /home/pb777/GAUSSIAN/g16/l1002.exe)
 Minotr:  Closed shell wavefunction.
          IDoAtm=11111111111111111111111111111111111111111111111111
          IDoAtm=111111
          Direct CPHF calculation.
          Differentiating once with respect to nuclear coordinates.
          Requested convergence is 1.0D-08 RMS, and 1.0D-07 maximum.
          Secondary convergence is 1.0D-12 RMS, and 1.0D-12 maximum.
          NewPWx=T KeepS1=F KeepF1=F KeepIn=T MapXYZ=F SortEE=F KeepMc=T.
 Two-electron integrals replicated using symmetry.
          MDV=     104857600 using IRadAn=       1.
          Solving linear equations simultaneously, MaxMat=     384.
 FoF2E skips out because all densities are zero.
 FoFJK:  IHMeth= 1 ICntrl=       0 DoSepK=F KAlg= 0 I1Cent=           0 FoldK=F
 IRaf= 580000000 NMat=     168 IRICut=     420 DoRegI=T DoRafI=T ISym2E= 2 IDoP0=0 IntGTp=1.
 FoFCou: FMM=F IPFlag=           0 FMFlag=      100000 FMFlg1=           0
         NFxFlg=           0 DoJE=F BraDBF=F KetDBF=F FulRan=T
         wScrn=  0.000000 ICntrl=         0 IOpCl=  0 I1Cent=           0 NGrid=           0
         NMat0=  168 NMatS0=    168 NMatT0=    0 NMatD0=  168 NMtDS0=    0 NMtDT0=    0
 Integrals replicated using symmetry in FoFCou.
 Raff kept on since  52.30% of shell-pairs survive, threshold=   0.20 IRatSp=52.
          There are   171 degrees of freedom in the 1st order CPHF.  IDoFFX=6 NUNeed=     0.
    165 vectors produced by pass  0 Test12= 4.47D-14 1.00D-09 XBig12= 1.01D-01 1.08D-01.
 AX will form   165 AO Fock derivatives at one time.
    165 vectors produced by pass  1 Test12= 4.47D-14 1.00D-09 XBig12= 1.16D-02 2.77D-02.
    165 vectors produced by pass  2 Test12= 4.47D-14 1.00D-09 XBig12= 3.23D-04 3.35D-03.
    165 vectors produced by pass  3 Test12= 4.47D-14 1.00D-09 XBig12= 5.41D-06 3.33D-04.
    165 vectors produced by pass  4 Test12= 4.47D-14 1.00D-09 XBig12= 4.76D-08 1.60D-05.
    165 vectors produced by pass  5 Test12= 4.47D-14 1.00D-09 XBig12= 3.58D-10 1.65D-06.
    148 vectors produced by pass  6 Test12= 4.47D-14 1.00D-09 XBig12= 2.44D-12 1.32D-07.
     49 vectors produced by pass  7 Test12= 4.47D-14 1.00D-09 XBig12= 1.33D-14 8.74D-09.
 InvSVY:  IOpt=1 It=  1 EMax= 3.33D-16
 Solved reduced A of dimension  1187 with   171 vectors.
 End of Minotr F.D. properties file   721 does not exist.
 End of Minotr F.D. properties file   722 does not exist.
 End of Minotr F.D. properties file   788 does not exist.
 Leave Link 1002 at Thu Jan 30 15:32:09 2025, MaxMem=   104857600 cpu:            2764.8 elap:            2778.4
 (Enter /home/pb777/GAUSSIAN/g16/l601.exe)
 Copying SCF densities to generalized density rwf, IOpCl= 0 IROHF=0.

 **********************************************************************

            Population analysis using the SCF density.

 **********************************************************************

 Orbital symmetries:
       Occupied  (A) (A) (A) (A) (A) (A) (A) (A) (A) (A) (A) (A)
                 (A) (A) (A) (A) (A) (A) (A) (A) (A) (A) (A) (A)
                 (A) (A) (A) (A) (A) (A) (A) (A) (A) (A) (A) (A)
                 (A) (A) (A) (A) (A) (A) (A) (A) (A) (A) (A) (A)
                 (A) (A) (A) (A) (A) (A) (A) (A) (A) (A) (A) (A)
                 (A) (A) (A) (A) (A) (A) (A) (A) (A) (A) (A) (A)
                 (A) (A) (A) (A) (A) (A) (A) (A) (A) (A) (A) (A)
                 (A) (A) (A) (A) (A) (A) (A) (A) (A) (A) (A) (A)
                 (A) (A) (A) (A) (A) (A) (A) (A) (A) (A) (A) (A)
                 (A) (A) (A) (A) (A) (A)
       Virtual   (A) (A) (A) (A) (A) (A) (A) (A) (A) (A) (A) (A)
                 (A) (A) (A) (A) (A) (A) (A) (A) (A) (A) (A) (A)
                 (A) (A) (A) (A) (A) (A) (A) (A) (A) (A) (A) (A)
                 (A) (A) (A) (A) (A) (A) (A) (A) (A) (A) (A) (A)
                 (A) (A) (A) (A) (A) (A) (A) (A) (A) (A) (A) (A)
                 (A) (A) (A) (A) (A) (A) (A) (A) (A) (A) (A) (A)
                 (A) (A) (A) (A) (A) (A) (A) (A) (A) (A) (A) (A)
                 (A) (A) (A) (A) (A) (A) (A) (A) (A) (A) (A) (A)
                 (A) (A) (A) (A) (A) (A) (A) (A) (A) (A) (A) (A)
                 (A) (A) (A) (A) (A) (A) (A) (A) (A) (A) (A) (A)
                 (A) (A) (A) (A) (A) (A) (A) (A) (A) (A) (A) (A)
                 (A) (A) (A) (A) (A) (A) (A) (A) (A) (A) (A) (A)
                 (A) (A) (A) (A) (A) (A) (A) (A) (A) (A) (A) (A)
                 (A) (A) (A) (A) (A) (A) (A) (A) (A) (A) (A) (A)
                 (A) (A) (A) (A) (A) (A) (A) (A) (A) (A) (A) (A)
                 (A) (A) (A) (A) (A) (A) (A) (A) (A) (A) (A) (A)
                 (A) (A) (A) (A) (A) (A) (A) (A) (A) (A) (A) (A)
                 (A) (A) (A) (A) (A) (A) (A) (A) (A) (A) (A) (A)
                 (A) (A) (A) (A) (A) (A) (A) (A) (A) (A) (A) (A)
                 (A) (A) (A) (A) (A) (A) (A) (A) (A) (A) (A) (A)
                 (A) (A) (A) (A) (A) (A) (A) (A) (A) (A) (A) (A)
                 (A) (A) (A) (A) (A) (A) (A) (A) (A) (A) (A) (A)
                 (A) (A) (A) (A) (A) (A) (A) (A) (A) (A) (A) (A)
                 (A) (A) (A) (A) (A) (A) (A) (A) (A) (A) (A) (A)
                 (A) (A) (A) (A) (A) (A) (A) (A) (A) (A) (A) (A)
                 (A) (A) (A) (A) (A) (A) (A) (A) (A) (A) (A) (A)
                 (A) (A) (A) (A) (A) (A) (A) (A) (A) (A) (A) (A)
                 (A) (A) (A) (A) (A) (A) (A) (A) (A) (A) (A) (A)
                 (A) (A) (A) (A) (A) (A) (A) (A) (A) (A) (A) (A)
                 (A) (A) (A) (A) (A) (A) (A) (A) (A) (A) (A) (A)
                 (A) (A) (A) (A) (A) (A) (A) (A) (A) (A) (A) (A)
                 (A) (A) (A) (A) (A) (A) (A) (A) (A) (A) (A) (A)
                 (A) (A) (A) (A) (A) (A) (A) (A)
 The electronic state is 1-A.
 Alpha  occ. eigenvalues --  -92.21253 -20.61684 -20.55467 -20.55359 -15.63768
 Alpha  occ. eigenvalues --  -15.61825 -15.60832 -15.56432 -15.55296 -15.54762
 Alpha  occ. eigenvalues --  -11.37378 -11.36774 -11.31629 -11.31402 -11.30164
 Alpha  occ. eigenvalues --  -11.28251 -11.27884 -11.27699 -11.27345 -11.27282
 Alpha  occ. eigenvalues --  -11.27089 -11.26003 -11.25691 -11.25257 -11.22539
 Alpha  occ. eigenvalues --  -11.21928 -11.21704 -11.21408 -11.21323 -11.21152
 Alpha  occ. eigenvalues --   -9.18159  -6.86744  -6.86729  -6.86657  -1.44404
 Alpha  occ. eigenvalues --   -1.44350  -1.40247  -1.35097  -1.32843  -1.24843
 Alpha  occ. eigenvalues --   -1.21979  -1.19567  -1.17905  -1.15881  -1.11238
 Alpha  occ. eigenvalues --   -1.06937  -1.04670  -1.03715  -1.02472  -1.00080
 Alpha  occ. eigenvalues --   -0.97667  -0.94203  -0.93429  -0.89912  -0.88117
 Alpha  occ. eigenvalues --   -0.86708  -0.85061  -0.83562  -0.83422  -0.81253
 Alpha  occ. eigenvalues --   -0.80341  -0.79127  -0.76855  -0.74808  -0.73529
 Alpha  occ. eigenvalues --   -0.71337  -0.70348  -0.68622  -0.68142  -0.67304
 Alpha  occ. eigenvalues --   -0.65896  -0.65053  -0.64796  -0.64510  -0.64062
 Alpha  occ. eigenvalues --   -0.63352  -0.63201  -0.62614  -0.61685  -0.60726
 Alpha  occ. eigenvalues --   -0.60416  -0.59603  -0.59555  -0.59375  -0.58551
 Alpha  occ. eigenvalues --   -0.57817  -0.57156  -0.55523  -0.54743  -0.53985
 Alpha  occ. eigenvalues --   -0.53139  -0.52743  -0.52272  -0.50615  -0.49332
 Alpha  occ. eigenvalues --   -0.48959  -0.48753  -0.48543  -0.48007  -0.47066
 Alpha  occ. eigenvalues --   -0.46337  -0.45487  -0.44698  -0.44014  -0.43479
 Alpha  occ. eigenvalues --   -0.42993  -0.42255  -0.42020  -0.39329  -0.38558
 Alpha  occ. eigenvalues --   -0.38034  -0.36296  -0.35543  -0.30190
 Alpha virt. eigenvalues --    0.09269   0.11373   0.13289   0.17682   0.19702
 Alpha virt. eigenvalues --    0.20417   0.21280   0.21923   0.22237   0.22935
 Alpha virt. eigenvalues --    0.23175   0.24839   0.25713   0.26391   0.26605
 Alpha virt. eigenvalues --    0.27077   0.27957   0.28317   0.28912   0.29141
 Alpha virt. eigenvalues --    0.29970   0.30330   0.30834   0.31528   0.31943
 Alpha virt. eigenvalues --    0.32327   0.33049   0.33265   0.33683   0.33801
 Alpha virt. eigenvalues --    0.33964   0.34161   0.34625   0.35142   0.35687
 Alpha virt. eigenvalues --    0.36476   0.36895   0.37360   0.38083   0.38954
 Alpha virt. eigenvalues --    0.39769   0.40867   0.41128   0.41250   0.41922
 Alpha virt. eigenvalues --    0.42762   0.43108   0.44600   0.45357   0.45691
 Alpha virt. eigenvalues --    0.46001   0.47303   0.48499   0.49080   0.50127
 Alpha virt. eigenvalues --    0.51149   0.52308   0.52926   0.53609   0.54766
 Alpha virt. eigenvalues --    0.55666   0.57534   0.57913   0.58419   0.60295
 Alpha virt. eigenvalues --    0.64655   0.66014   0.66904   0.68160   0.69478
 Alpha virt. eigenvalues --    0.71084   0.71784   0.72127   0.72752   0.73980
 Alpha virt. eigenvalues --    0.74819   0.75003   0.75363   0.75723   0.76446
 Alpha virt. eigenvalues --    0.76845   0.77684   0.77898   0.78868   0.79628
 Alpha virt. eigenvalues --    0.79766   0.80228   0.80687   0.81255   0.81413
 Alpha virt. eigenvalues --    0.81871   0.82141   0.83336   0.83949   0.84511
 Alpha virt. eigenvalues --    0.85068   0.86127   0.86931   0.88355   0.89342
 Alpha virt. eigenvalues --    0.89803   0.90389   0.90432   0.91921   0.91945
 Alpha virt. eigenvalues --    0.92914   0.93077   0.94618   0.95075   0.95718
 Alpha virt. eigenvalues --    0.96877   0.98471   0.99113   0.99618   0.99623
 Alpha virt. eigenvalues --    1.00780   1.01698   1.01844   1.02228   1.02393
 Alpha virt. eigenvalues --    1.03144   1.03560   1.04470   1.04833   1.05136
 Alpha virt. eigenvalues --    1.05660   1.06521   1.06943   1.07216   1.08033
 Alpha virt. eigenvalues --    1.09009   1.09695   1.10390   1.11679   1.12097
 Alpha virt. eigenvalues --    1.12817   1.13336   1.13564   1.13676   1.14100
 Alpha virt. eigenvalues --    1.14742   1.14770   1.15358   1.15688   1.15795
 Alpha virt. eigenvalues --    1.16093   1.16366   1.17024   1.17471   1.17776
 Alpha virt. eigenvalues --    1.18331   1.18728   1.19197   1.19709   1.20319
 Alpha virt. eigenvalues --    1.20770   1.20888   1.21802   1.23027   1.23425
 Alpha virt. eigenvalues --    1.23586   1.24142   1.24525   1.25311   1.26038
 Alpha virt. eigenvalues --    1.27026   1.27076   1.27523   1.28734   1.28927
 Alpha virt. eigenvalues --    1.30818   1.32611   1.33116   1.33589   1.34783
 Alpha virt. eigenvalues --    1.35344   1.36431   1.37056   1.37296   1.39131
 Alpha virt. eigenvalues --    1.39972   1.40638   1.41398   1.41447   1.43562
 Alpha virt. eigenvalues --    1.44559   1.45285   1.45865   1.47986   1.48913
 Alpha virt. eigenvalues --    1.49866   1.51784   1.52529   1.53830   1.54941
 Alpha virt. eigenvalues --    1.56454   1.58014   1.58772   1.59601   1.60605
 Alpha virt. eigenvalues --    1.61908   1.63536   1.64617   1.65390   1.66498
 Alpha virt. eigenvalues --    1.67053   1.68266   1.69347   1.69901   1.70446
 Alpha virt. eigenvalues --    1.71221   1.71374   1.73040   1.73755   1.74979
 Alpha virt. eigenvalues --    1.75654   1.76629   1.77024   1.77695   1.80013
 Alpha virt. eigenvalues --    1.81824   1.82458   1.82813   1.84731   1.87452
 Alpha virt. eigenvalues --    1.88971   1.91199   1.92254   1.93101   1.95114
 Alpha virt. eigenvalues --    1.95841   1.97420   1.98567   2.00324   2.00961
 Alpha virt. eigenvalues --    2.02017   2.03917   2.05054   2.06231   2.06464
 Alpha virt. eigenvalues --    2.08189   2.08922   2.09506   2.10602   2.11802
 Alpha virt. eigenvalues --    2.12253   2.13231   2.13636   2.15108   2.15497
 Alpha virt. eigenvalues --    2.16116   2.17295   2.17609   2.19128   2.21236
 Alpha virt. eigenvalues --    2.22415   2.22943   2.23732   2.24505   2.24883
 Alpha virt. eigenvalues --    2.25125   2.26354   2.28105   2.28517   2.29129
 Alpha virt. eigenvalues --    2.29568   2.29597   2.30107   2.31051   2.31739
 Alpha virt. eigenvalues --    2.33688   2.33905   2.35165   2.36567   2.37294
 Alpha virt. eigenvalues --    2.38039   2.38918   2.39859   2.40762   2.41513
 Alpha virt. eigenvalues --    2.42245   2.42519   2.43227   2.43761   2.45090
 Alpha virt. eigenvalues --    2.45667   2.46714   2.47230   2.50429   2.51694
 Alpha virt. eigenvalues --    2.53435   2.54466   2.54561   2.54699   2.55800
 Alpha virt. eigenvalues --    2.57381   2.57974   2.59445   2.59652   2.60817
 Alpha virt. eigenvalues --    2.61296   2.62190   2.63902   2.65147   2.65855
 Alpha virt. eigenvalues --    2.66565   2.68007   2.68838   2.69623   2.71486
 Alpha virt. eigenvalues --    2.73500   2.74063   2.74777   2.75490   2.75708
 Alpha virt. eigenvalues --    2.76713   2.79583   2.80249   2.80801   2.81516
 Alpha virt. eigenvalues --    2.84798   2.87152   2.88867   2.90491   2.91167
 Alpha virt. eigenvalues --    2.92545   2.93134   2.94043   2.95012   2.97288
 Alpha virt. eigenvalues --    2.98008   2.98674   3.00404   3.01157   3.02242
 Alpha virt. eigenvalues --    3.04238   3.04637   3.05728   3.06779   3.08216
 Alpha virt. eigenvalues --    3.09748   3.10660   3.10889   3.12158   3.13724
 Alpha virt. eigenvalues --    3.14530   3.15961   3.17348   3.19423   3.20629
 Alpha virt. eigenvalues --    3.21497   3.25580   3.29948   3.31653   3.35895
 Alpha virt. eigenvalues --    3.42019   3.45178   3.57141   3.62425   3.74191
 Alpha virt. eigenvalues --    3.82347   3.90470   4.19899   4.38858   4.40842
 Alpha virt. eigenvalues --    4.42032   4.46081   4.46938   4.50546   4.52118
 Alpha virt. eigenvalues --    4.53873   4.55522   4.58775   4.59108   4.62469
 Alpha virt. eigenvalues --    4.64028   4.68531   4.69327   4.69976   4.71248
 Alpha virt. eigenvalues --    4.72300   4.74649   4.79276   4.83397   4.86732
 Alpha virt. eigenvalues --    4.93084   4.96009   4.97291   5.06597   5.09623
 Alpha virt. eigenvalues --    5.14783   5.23433
          Condensed to atoms (all electrons):
 Mulliken charges:
               1
     1  C    0.894321
     2  C    0.259397
     3  C   -0.025050
     4  C   -0.160124
     5  C   -0.327190
     6  C   -0.314435
     7  C   -0.307789
     8  C   -0.316899
     9  C   -0.323970
    10  C   -0.172430
    11  C   -0.320565
    12  C   -0.168569
    13  C   -0.246135
    14  N   -0.785005
    15  C    0.787647
    16  O   -0.633025
    17  C    0.041572
    18  N   -0.553603
    19  N   -0.772228
    20  C    0.643170
    21  N   -0.730955
    22  N   -0.895829
    23  C    0.360821
    24  C   -0.213028
    25  H    0.226709
    26  H    0.197054
    27  H    0.188066
    28  H    0.191267
    29  H    0.150346
    30  H    0.171231
    31  H    0.162370
    32  H    0.149520
    33  H    0.151393
    34  H    0.165575
    35  H    0.164724
    36  H    0.149958
    37  H    0.174625
    38  H    0.143718
    39  H    0.266051
    40  H    0.238053
    41  H    0.215123
    42  H    0.417297
    43  H    0.425119
    44  H    0.245582
    45  S    1.687665
    46  O   -0.693718
    47  O   -0.682476
    48  N   -0.771144
    49  C   -0.296088
    50  H    0.191190
    51  H    0.219873
    52  H    0.160283
    53  C   -0.298906
    54  H    0.193536
    55  H    0.147770
    56  H    0.228133
 Sum of Mulliken charges =  -0.00000
 Mulliken charges with hydrogens summed into heavy atoms:
               1
     1  C    0.894321
     2  C    0.486107
     3  C    0.360070
     4  C    0.031143
     5  C   -0.005612
     6  C   -0.002545
     7  C    0.009179
     8  C   -0.002217
     9  C   -0.005627
    10  C    0.093621
    11  C   -0.320565
    12  C    0.069484
    13  C   -0.031012
    14  N   -0.785005
    15  C    0.787647
    16  O   -0.633025
    17  C    0.041572
    18  N   -0.553603
    19  N   -0.354931
    20  C    0.643170
    21  N   -0.730955
    22  N   -0.470710
    23  C    0.360821
    24  C    0.032554
    45  S    1.687665
    46  O   -0.693718
    47  O   -0.682476
    48  N   -0.771144
    49  C    0.275258
    53  C    0.270533
 APT charges:
               1
     1  C   -0.258788
     2  C   -0.527545
     3  C    0.173793
     4  C   -0.857472
     5  C   -0.188353
     6  C   -1.658155
     7  C   -1.100955
     8  C   -1.786193
     9  C   -0.318352
    10  C   -0.619334
    11  C   -0.122932
    12  C   -0.535557
    13  C   -0.622478
    14  N   -1.001035
    15  C    0.250272
    16  O   -0.245501
    17  C   -0.364697
    18  N   -0.882900
    19  N   -0.906296
    20  C    0.843314
    21  N   -0.288101
    22  N   -0.958686
    23  C   -0.010114
    24  C   -0.594590
    25  H    1.575714
    26  H    0.174309
    27  H    0.110601
    28  H    0.766251
    29  H    0.020016
    30  H    0.477610
    31  H    0.557554
    32  H    0.732813
    33  H    0.046645
    34  H    1.099377
    35  H    0.661848
    36  H    0.758707
    37  H    0.518465
    38  H    0.057784
    39  H    0.447512
    40  H    0.977882
    41  H    0.780451
    42  H    1.326387
    43  H    1.065781
    44  H    0.260946
    45  S    0.640021
    46  O   -0.691225
    47  O    0.168781
    48  N   -0.171808
    49  C   -0.789650
    50  H    1.081374
    51  H    0.011938
    52  H   -0.030831
    53  C   -2.000022
    54  H    1.160971
    55  H    0.053587
    56  H    0.730867
 Sum of APT charges =  -0.00000
 APT charges with hydrogens summed into heavy atoms:
               1
     1  C   -0.258788
     2  C    1.048169
     3  C    0.458704
     4  C   -0.091222
     5  C    0.309273
     6  C   -0.367788
     7  C    0.045067
     8  C   -0.365638
     9  C    0.257897
    10  C   -0.171823
    11  C   -0.122932
    12  C    0.442325
    13  C    0.157973
[...]
 1523 Fit      -0.007700
 1524 Fit       0.010530
 1525 Fit       0.006752
 1526 Fit       0.002351
 1527 Fit      -0.004800
 1528 Fit      -0.017777
 1529 Fit       0.007256
 1530 Fit       0.002534
 1531 Fit      -0.004543
 1532 Fit      -0.015835
 1533 Fit       0.011033
 1534 Fit       0.011680
 1535 Fit       0.007512
 1536 Fit       0.010799
 1537 Fit       0.011624
 1538 Fit       0.010018
 1539 Fit       0.011176
 1540 Fit       0.011841
 1541 Fit       0.012895
 1542 Fit       0.012359
 1543 Fit      -0.017324
 1544 Fit       0.012159
 1545 Fit       0.013574
 1546 Fit       0.010460
 1547 Fit       0.008679
 1548 Fit       0.010478
 1549 Fit       0.012012
 1550 Fit       0.003751
 1551 Fit      -0.003236
 1552 Fit       0.013424
 1553 Fit       0.014648
 1554 Fit       0.014279
 1555 Fit       0.010481
 1556 Fit       0.005851
 1557 Fit       0.002847
 1558 Fit       0.008183
 1559 Fit       0.012386
 1560 Fit       0.012792
 1561 Fit       0.012066
 1562 Fit       0.009132
 1563 Fit       0.011155
 1564 Fit       0.007780
 1565 Fit       0.010848
 1566 Fit       0.012147
 1567 Fit       0.011738
 1568 Fit       0.011252
 1569 Fit       0.011672
 1570 Fit       0.012787
 1571 Fit       0.011942
 1572 Fit       0.011951
 1573 Fit       0.012201
 1574 Fit      -0.019148
 1575 Fit      -0.014272
 1576 Fit      -0.002368
 1577 Fit      -0.019136
 1578 Fit      -0.003308
 1579 Fit       0.000605
 1580 Fit       0.006704
 1581 Fit      -0.004459
 1582 Fit       0.004227
 1583 Fit       0.007941
 1584 Fit      -0.003157
 1585 Fit      -0.000928
 1586 Fit       0.002261
 1587 Fit       0.001805
 1588 Fit      -0.001154
 1589 Fit      -0.001489
 1590 Fit       0.003473
 1591 Fit       0.008738
 1592 Fit       0.011290
 1593 Fit      -0.002318
 1594 Fit       0.018350
 1595 Fit      -0.003963
 1596 Fit       0.011292
 1597 Fit       0.000620
 1598 Fit       0.023341
 1599 Fit       0.013394
 1600 Fit       0.004412
 1601 Fit      -0.001080
 1602 Fit       0.002811
 1603 Fit       0.002113
 1604 Fit       0.007948
 1605 Fit       0.001677
 1606 Fit       0.001233
 1607 Fit       0.001341
 1608 Fit       0.002016
 1609 Fit       0.003979
 1610 Fit      -0.000188
 1611 Fit      -0.000712
 1612 Fit      -0.000736
 1613 Fit      -0.000120
 1614 Fit       0.000010
 1615 Fit      -0.002457
 1616 Fit      -0.001517
 1617 Fit      -0.000153
 1618 Fit      -0.004611
 1619 Fit      -0.006630
 1620 Fit      -0.002220
 1621 Fit      -0.004922
 1622 Fit      -0.005428
 1623 Fit      -0.014617
 1624 Fit      -0.010373
 1625 Fit      -0.012722
 1626 Fit      -0.022357
 1627 Fit      -0.016438
 1628 Fit       0.011226
 1629 Fit      -0.020198
 1630 Fit      -0.016577
 1631 Fit      -0.015403
 1632 Fit      -0.014352
 1633 Fit      -0.012861
 1634 Fit      -0.000206
 1635 Fit       0.013157
 1636 Fit      -0.013785
 1637 Fit      -0.007424
 1638 Fit      -0.001789
 1639 Fit      -0.005072
 1640 Fit       0.001371
 1641 Fit       0.007802
 1642 Fit       0.000717
 1643 Fit       0.016312
 1644 Fit       0.008002
 1645 Fit       0.004055
 1646 Fit       0.012782
 1647 Fit       0.007741
 1648 Fit       0.008125
 1649 Fit       0.010378
 1650 Fit      -0.003945
 1651 Fit      -0.001999
 1652 Fit       0.001611
 1653 Fit       0.000890
 1654 Fit      -0.002191
 1655 Fit      -0.007354
 1656 Fit      -0.000240
 1657 Fit      -0.001706
 1658 Fit      -0.007872
 1659 Fit      -0.000967
 1660 Fit       0.002232
 1661 Fit       0.001682
 1662 Fit      -0.026659
 1663 Fit      -0.010897
 1664 Fit      -0.008838
 1665 Fit      -0.001699
 1666 Fit      -0.007800
 1667 Fit      -0.003496
 1668 Fit      -0.008349
 1669 Fit      -0.003615
 1670 Fit      -0.001064
 1671 Fit      -0.018584
 1672 Fit      -0.014556
 1673 Fit      -0.012733
 1674 Fit      -0.015039
 1675 Fit      -0.021127
 1676 Fit      -0.022274
 1677 Fit      -0.018620
 1678 Fit      -0.007023
 1679 Fit      -0.008928
 1680 Fit      -0.017891
 1681 Fit      -0.024403
 1682 Fit      -0.003576
 1683 Fit      -0.015667
 1684 Fit      -0.023519
 1685 Fit      -0.027052
 1686 Fit      -0.011873
 1687 Fit      -0.020685
 1688 Fit      -0.024765
 1689 Fit      -0.007542
 1690 Fit      -0.016628
 1691 Fit      -0.020458
 1692 Fit      -0.021452
 1693 Fit      -0.011945
 1694 Fit      -0.014889
 1695 Fit      -0.013395
 1696 Fit      -0.006944
 1697 Fit      -0.008429
 1698 Fit       0.006823
 1699 Fit       0.012584
 1700 Fit       0.007867
 1701 Fit       0.015302
 1702 Fit       0.021712
 1703 Fit       0.008433
 1704 Fit       0.020268
 1705 Fit       0.035966
 1706 Fit       0.026727
 1707 Fit       0.026335
 1708 Fit       0.016637
 1709 Fit       0.008413
 1710 Fit       0.004176
 1711 Fit       0.021922
 1712 Fit       0.012978
 1713 Fit       0.006650
 1714 Fit       0.012819
 1715 Fit      -0.000041
 1716 Fit       0.001428
 1717 Fit       0.003174
 1718 Fit       0.001873
 1719 Fit       0.004605
 1720 Fit      -0.001210
 1721 Fit      -0.001385
 1722 Fit       0.000080
 1723 Fit       0.003275
 1724 Fit       0.000530
 1725 Fit       0.006855
 1726 Fit       0.003289
 1727 Fit       0.007384
 1728 Fit       0.004989
 1729 Fit       0.009120
 1730 Fit       0.004387
 1731 Fit       0.009376
 1732 Fit       0.004690
 1733 Fit       0.001489
 1734 Fit       0.001583
 1735 Fit       0.003418
 1736 Fit       0.002371
 1737 Fit       0.000794
 1738 Fit       0.001244
 1739 Fit       0.002152
 1740 Fit      -0.004699
 1741 Fit      -0.001828
 1742 Fit       0.001140
 1743 Fit       0.002919
 1744 Fit       0.012099
 1745 Fit       0.000706
 1746 Fit       0.002558
 1747 Fit       0.001962
 1748 Fit       0.011281
 1749 Fit       0.005920
 1750 Fit       0.005083
 1751 Fit       0.011630
 1752 Fit      -0.006065
 1753 Fit      -0.013067
 1754 Fit      -0.006885
 1755 Fit       0.001859
 1756 Fit       0.001552
 1757 Fit       0.004451
 1758 Fit      -0.000260
 1759 Fit      -0.008419
 1760 Fit      -0.006245
 1761 Fit      -0.010955
 1762 Fit      -0.006989
 1763 Fit       0.001419
 1764 Fit       0.004903
 1765 Fit       0.001051
 1766 Fit       0.002846
 1767 Fit       0.010101
 1768 Fit       0.001438
 1769 Fit       0.018661
 1770 Fit       0.018363
 1771 Fit       0.015599
 1772 Fit       0.009704
 1773 Fit      -0.002045
 1774 Fit       0.025869
 1775 Fit       0.023205
 1776 Fit       0.020013
 1777 Fit       0.015434
 1778 Fit       0.008144
 1779 Fit       0.033117
 1780 Fit       0.027127
 1781 Fit       0.022666
 1782 Fit       0.017757
 1783 Fit       0.010969
 1784 Fit       0.031423
 1785 Fit       0.024026
 1786 Fit       0.017552
 1787 Fit       0.015732
 1788 Fit       0.002866
 1789 Fit       0.006979
 1790 Fit       0.010204
 1791 Fit       0.012110
 1792 Fit       0.012353
 1793 Fit       0.005899
 1794 Fit       0.008731
 1795 Fit       0.007904
 1796 Fit       0.004139
 1797 Fit       0.003734
 1798 Fit       0.002107
 1799 Fit       0.000885
 1800 Fit       0.006767
 1801 Fit       0.000429
 1802 Fit      -0.001770
 1803 Fit       0.004653
 1804 Fit      -0.012491
 1805 Fit      -0.003305
 1806 Fit      -0.015912
 1807 Fit      -0.004466
 1808 Fit       0.001321
 1809 Fit       0.004546
 1810 Fit      -0.010427
 1811 Fit      -0.001347
 1812 Fit       0.003322
 1813 Fit       0.005939
 1814 Fit       0.002502
 1815 Fit       0.006818
 1816 Fit       0.003255
 1817 Fit       0.002506
 1818 Fit       0.002242
 1819 Fit       0.002544
 1820 Fit       0.005898
 1821 Fit       0.001119
 1822 Fit       0.000978
 1823 Fit       0.004617
 1824 Fit       0.001370
 1825 Fit       0.001829
 1826 Fit       0.006264
 1827 Fit       0.004836
 1828 Fit       0.004837
 1829 Fit       0.004696
 1830 Fit       0.013830
 1831 Fit       0.007967
 1832 Fit       0.007068
 1833 Fit       0.006770
 1834 Fit       0.006942
 1835 Fit       0.007491
 1836 Fit       0.009364
 1837 Fit       0.012865
 1838 Fit       0.009277
 1839 Fit       0.008888
 1840 Fit       0.010033
 1841 Fit       0.011384
 1842 Fit       0.001660
 1843 Fit       0.001822
 1844 Fit       0.001721
 1845 Fit       0.001390
 1846 Fit       0.001570
 1847 Fit       0.002203
 1848 Fit       0.002376
 1849 Fit       0.001983
 1850 Fit       0.001585
 1851 Fit       0.001613
 1852 Fit       0.002420
 1853 Fit       0.002705
 1854 Fit       0.002358
 1855 Fit       0.001930
 1856 Fit       0.002841
 1857 Fit       0.003171
 1858 Fit       0.003101
 1859 Fit       0.003427
 1860 Fit       0.002825
 1861 Fit       0.001839
 1862 Fit       0.004249
 1863 Fit       0.003992
 1864 Fit       0.003429
 1865 Fit       0.002442
 1866 Fit       0.004793
 1867 Fit       0.004284
 1868 Fit       0.003456
 1869 Fit       0.005389
 1870 Fit       0.004748
 1871 Fit      -0.000314
 1872 Fit       0.000525
 1873 Fit       0.000672
 1874 Fit      -0.000308
 1875 Fit       0.001316
 1876 Fit       0.001659
 1877 Fit       0.001484
 1878 Fit      -0.000170
 1879 Fit       0.000639
 1880 Fit       0.002140
 1881 Fit       0.002974
 1882 Fit       0.000736
 1883 Fit       0.001332
 1884 Fit       0.001969
 1885 Fit       0.002615
 1886 Fit       0.000487
 1887 Fit       0.000677
 1888 Fit       0.001427
 1889 Fit       0.001429
 1890 Fit       0.000165
 1891 Fit       0.001315
 1892 Fit       0.002217
 1893 Fit       0.002278
 1894 Fit       0.001509
 1895 Fit       0.000174
 1896 Fit       0.002010
 1897 Fit       0.002541
 1898 Fit       0.002435
 1899 Fit       0.001846
 1900 Fit       0.000995
 1901 Fit       0.002455
 1902 Fit       0.002521
 1903 Fit       0.002130
 1904 Fit       0.001149
 1905 Fit       0.001097
 1906 Fit       0.001064
 1907 Fit       0.000806
 1908 Fit       0.000664
 1909 Fit       0.000754
 1910 Fit       0.000698
 1911 Fit       0.001041
 1912 Fit       0.000592
 1913 Fit       0.000081
 1914 Fit      -0.000283
 1915 Fit      -0.000529
 1916 Fit      -0.000571
 1917 Fit      -0.000188
 1918 Fit      -0.002146
 1919 Fit      -0.002500
 1920 Fit      -0.002614
 1921 Fit      -0.001243
 1922 Fit       0.000095
 1923 Fit      -0.003542
 1924 Fit      -0.001248
 1925 Fit       0.000492
 1926 Fit       0.001612
 1927 Fit      -0.004508
 1928 Fit      -0.001094
 1929 Fit       0.001217
 1930 Fit       0.002683
 1931 Fit      -0.004341
 1932 Fit       0.000204
 1933 Fit       0.003013
 1934 Fit      -0.005750
 1935 Fit      -0.006556
 1936 Fit      -0.005926
 1937 Fit      -0.007947
 1938 Fit      -0.012060
 1939 Fit      -0.014219
 1940 Fit      -0.012131
 1941 Fit      -0.008377
 1942 Fit      -0.025523
 1943 Fit      -0.015009
 1944 Fit       0.001389
 1945 Fit      -0.000120
 1946 Fit       0.001963
 1947 Fit       0.000457
 1948 Fit      -0.001681
 1949 Fit       0.003267
 1950 Fit       0.002999
 1951 Fit       0.001403
 1952 Fit      -0.001075
 1953 Fit       0.004351
 1954 Fit      -0.000003
 1955 Fit      -0.003234
 1956 Fit       0.007625
 1957 Fit      -0.000485
 1958 Fit      -0.014407
 1959 Fit       0.004619
 1960 Fit      -0.008052
 1961 Fit       0.012227
 1962 Fit       0.007013
 1963 Fit      -0.003505
 1964 Fit       0.012362
 1965 Fit      -0.006621
 1966 Fit       0.002435
 1967 Fit      -0.012573
 1968 Fit      -0.000275
 1969 Fit       0.007876
 1970 Fit      -0.000966
 1971 Fit       0.006650
 1972 Fit       0.013228
 1973 Fit       0.007873
 1974 Fit       0.011931
 1975 Fit       0.012188
 1976 Fit       0.011515
 1977 Fit       0.008563
 1978 Fit       0.013280
 1979 Fit       0.019753
 1980 Fit       0.012996
 1981 Fit       0.016176
 1982 Fit       0.020930
 1983 Fit       0.015702
 1984 Fit       0.015893
 1985 Fit       0.018582
 1986 Fit       0.022038
 1987 Fit       0.015516
 1988 Fit       0.016919
 1989 Fit       0.017486
 1990 Fit       0.014214
 1991 Fit       0.020308
 1992 Fit       0.027395
 1993 Fit       0.031871
 1994 Fit       0.035398
 1995 Fit       0.022314
 1996 Fit       0.029464
 1997 Fit       0.033292
 1998 Fit       0.035368
 1999 Fit       0.036356
 2000 Fit       0.025299
 2001 Fit       0.031123
 2002 Fit       0.033188
 2003 Fit       0.032266
 2004 Fit       0.018223
 2005 Fit       0.027353
 2006 Fit       0.028428
 2007 Fit       0.021663
 2008 Fit       0.017086
 2009 Fit       0.014333
 2010 Fit       0.020774
 2011 Fit       0.012960
 2012 Fit       0.021224
 2013 Fit       0.011930
 2014 Fit       0.022565
 2015 Fit       0.014574
 2016 Fit       0.018486
 2017 Fit      -0.028816
 2018 Fit      -0.037955
 2019 Fit      -0.030807
 2020 Fit      -0.023978
 2021 Fit      -0.041265
 2022 Fit      -0.036816
 2023 Fit      -0.028289
 2024 Fit      -0.021128
 2025 Fit      -0.042577
 2026 Fit      -0.039553
 2027 Fit      -0.040527
 2028 Fit      -0.028616
 2029 Fit      -0.031853
 2030 Fit      -0.034097
 2031 Fit      -0.039353
 2032 Fit      -0.029488
 2033 Fit      -0.034616
 2034 Fit      -0.032383
 2035 Fit      -0.037253
 2036 Fit      -0.032873
 2037 Fit      -0.026373
 2038 Fit      -0.024787
 2039 Fit      -0.030604
 2040 Fit      -0.036025
 2041 Fit      -0.040850
 2042 Fit      -0.020996
 2043 Fit      -0.027990
 2044 Fit      -0.033771
 2045 Fit      -0.038108
 2046 Fit      -0.040664
 2047 Fit      -0.014954
 2048 Fit      -0.023574
 2049 Fit      -0.031091
 2050 Fit      -0.036671
 2051 Fit      -0.040513
 2052 Fit      -0.043303
 2053 Fit      -0.031634
 2054 Fit      -0.036974
 2055 Fit      -0.040476
 2056 Fit      -0.036458
 2057 Fit      -0.030978
 2058 Fit      -0.043739
 2059 Fit      -0.039123
 2060 Fit      -0.035681
 2061 Fit      -0.030638
 2062 Fit      -0.042847
 2063 Fit      -0.041456
 2064 Fit      -0.036282
 2065 Fit      -0.032994
 2066 Fit      -0.027915
 2067 Fit      -0.039163
 2068 Fit      -0.038389
 2069 Fit      -0.031843
 2070 Fit      -0.027855
 2071 Fit      -0.020531
 2072 Fit      -0.034073
 2073 Fit      -0.033917
 2074 Fit      -0.024469
 2075 Fit      -0.019675
 2076 Fit      -0.009385
 2077 Fit      -0.025842
 2078 Fit      -0.025526
 2079 Fit      -0.017944
 2080 Fit      -0.023730
 2081 Fit      -0.005780
 2082 Fit       0.009312
 2083 Fit       0.010101
 2084 Fit       0.008477
 2085 Fit       0.006101
 2086 Fit       0.002274
 2087 Fit      -0.003758
 2088 Fit      -0.012863
 2089 Fit       0.010551
 2090 Fit       0.009724
 2091 Fit      -0.006791
 2092 Fit       0.011081
 2093 Fit       0.011860
 2094 Fit       0.006931
 2095 Fit       0.003560
 2096 Fit      -0.001213
 2097 Fit       0.010108
 2098 Fit       0.008496
 2099 Fit       0.006215
 2100 Fit       0.002956
 2101 Fit      -0.001728
 2102 Fit       0.011977
 2103 Fit       0.011208
 2104 Fit       0.010153
 2105 Fit       0.008506
 2106 Fit       0.006452
 2107 Fit       0.012704
 2108 Fit       0.011662
 2109 Fit       0.011761
 2110 Fit      -0.002618
 2111 Fit      -0.010195
 2112 Fit       0.004363
 2113 Fit      -0.000330
 2114 Fit      -0.007552
 2115 Fit      -0.020554
 2116 Fit       0.006858
 2117 Fit       0.003277
 2118 Fit      -0.001740
 2119 Fit      -0.009350
 2120 Fit      -0.021646
 2121 Fit       0.008560
 2122 Fit       0.010488
 2123 Fit       0.006284
 2124 Fit       0.009054
 2125 Fit       0.010281
 2126 Fit       0.009807
 2127 Fit       0.010359
 2128 Fit       0.011026
 2129 Fit      -0.007564
 2130 Fit      -0.011159
 2131 Fit       0.010149
 2132 Fit       0.012991
 2133 Fit      -0.002555
 2134 Fit       0.004206
 2135 Fit       0.006673
 2136 Fit       0.009095
 2137 Fit       0.011484
 2138 Fit       0.007588
 2139 Fit       0.009096
 2140 Fit       0.010552
 2141 Fit       0.009200
 2142 Fit       0.003248
 2143 Fit      -0.001143
 2144 Fit       0.012089
 2145 Fit       0.012550
 2146 Fit       0.011838
 2147 Fit       0.008969
 2148 Fit       0.005513
 2149 Fit       0.003299
 2150 Fit       0.007324
 2151 Fit       0.010931
 2152 Fit       0.011162
 2153 Fit       0.010250
 2154 Fit       0.007915
 2155 Fit       0.009665
 2156 Fit       0.006299
 2157 Fit       0.009408
 2158 Fit       0.008449
 2159 Fit       0.009438
 2160 Fit       0.011368
 2161 Fit       0.010974
 2162 Fit       0.010917
 2163 Fit       0.010530
 2164 Fit       0.010779
 2165 Fit       0.011816
 2166 Fit       0.010893
 2167 Fit       0.011287
 2168 Fit      -0.011519
 2169 Fit      -0.007816
 2170 Fit      -0.000419
 2171 Fit      -0.012265
 2172 Fit      -0.001725
 2173 Fit       0.001454
 2174 Fit       0.006296
 2175 Fit      -0.002490
 2176 Fit       0.004030
 -----------------------------------------------------------------
 Leave Link  602 at Thu Jan 30 18:41:03 2025, MaxMem=   104857600 cpu:               0.3 elap:               0.3
 (Enter /home/pb777/GAUSSIAN/g16/l9999.exe)

 Test job not archived.
 1\1\GINC-BUMBU\SP\RHF\6-31G(d)\C20H26N6O3S1\PB777\30-Jan-2025\0\\#P HF
 /6-31G* GEOM(AllCheck) Guess(Read) NoSymm Pop=mk IOp(6/33=2) GFInput G
 FPrint\\Gaussian Calculation\\0,1\C,0,1.6596961017,28.9895805391,6.901
 069256\C,0,-1.5616075578,31.6525828733,8.0909659522\C,0,-0.2576095314,
 26.2885518891,9.176892532\C,0,-1.1727624314,25.5293938841,10.117878801
 8\C,0,-0.7349281062,24.0641709593,10.2048307345\C,0,-1.6275011492,23.2
 669945626,11.1550667693\C,0,-1.6790096468,23.9058047502,12.5416369516\
 C,0,-2.1145408713,25.367579699,12.4595200523\C,0,-1.2208622082,26.1635
 127278,11.5103452715\C,0,3.9561511303,25.1163873547,6.7961466771\C,0,5
 .1206389692,25.1290054961,6.0304220964\C,0,5.5042529068,26.2943501472,
 5.3651800672\C,0,4.7189436059,27.4283808192,5.4656983984\N,0,1.0082977
 525,28.092056764,7.65925804\C,0,-0.1089282977,28.4682524292,8.27052862
 49\O,0,-0.7792308259,27.613933154,9.0283491738\C,0,-0.5913668018,29.77
 77124564,8.1180473865\N,0,-1.6854365505,30.4615351549,8.6036443363\N,0
 ,-0.4478897585,31.7985719273,7.2925833898\C,0,0.1972784821,30.59353731
 92,7.2961745929\N,0,1.3201538913,30.2616409743,6.666936898\N,0,2.82078
 15849,28.6123495373,6.2640036943\C,0,3.5363174177,27.4266931189,6.2284
 518399\C,0,3.1645092422,26.2513219233,6.9001684462\H,0,-2.2471878267,3
 2.4744836344,8.2534428714\H,0,-0.2095313259,25.8109444603,8.1905987167
 \H,0,0.7633528676,26.3460821149,9.5753086982\H,0,-2.1865305687,25.5606
 876748,9.6894921715\H,0,0.3048778571,24.0206381676,10.5642215139\H,0,-
 0.7406628198,23.6068281585,9.2062591144\H,0,-1.2715891264,22.231674731
 9,11.2228852163\H,0,-2.6447415755,23.2218191963,10.7393738558\H,0,-0.6
 811220064,23.8512998894,13.0014079811\H,0,-2.3552125989,23.3406191146,
 13.1949411538\H,0,-2.1057539401,25.8259203644,13.4560102217\H,0,-3.154
 0423327,25.4168517402,12.1033299508\H,0,-1.5645686075,27.2008815852,11
 .4332142437\H,0,-0.1978949756,26.1970702331,11.9173343823\H,0,3.685122
 557,24.2153968682,7.338121369\H,0,6.4299882051,26.3119176666,4.7986866
 155\H,0,5.0257195846,28.3396642014,4.9565769899\H,0,-0.1508425741,32.6
 256536345,6.7981953634\H,0,3.2118869319,29.3795826541,5.7351350221\H,0
 ,2.2661154215,26.2482013133,7.5011529067\S,0,6.0885451728,23.652926428
 7,5.8583599662\O,0,5.8144906957,22.8100437657,7.0140406149\O,0,7.43991
 48837,24.0555019251,5.4930812877\N,0,5.4778093908,22.8285255382,4.5307
 710565\C,0,4.1528717973,22.2548993644,4.6975070299\H,0,4.0063674712,21
 .5063728218,3.9124604705\H,0,4.0950885563,21.7563910045,5.6658569706\H
 ,0,3.3508250734,23.0066334597,4.6186954605\C,0,5.7114195805,23.4501426
 197,3.2380244183\H,0,5.5542310031,22.6923019115,2.4640570149\H,0,5.031
 5776609,24.2954520227,3.0433060248\H,0,6.7461282196,23.790691274,3.183
 3513438\\Version=ES64L-G16RevA.03\HF=-1721.2537216\RMSD=8.330e-09\Dipo
 le=-2.0677382,2.0871468,-1.296372\Quadrupole=-96.8270238,175.7926264,-
 78.9656026,-81.8361403,-35.7042598,-38.3653247\PG=C01 [X(C20H26N6O3S1)
 ]\\@


  ON THE CHOICE OF THE CORRECT LANGUAGE -
 I SPEAK SPANISH TO GOD, ITALIAN TO WOMEN,
 FRENCH TO MEN, AND GERMAN TO MY HORSE.
          -- CHARLES V
 Job cpu time:       0 days  0 hours  2 minutes 39.2 seconds.
 Elapsed time:       0 days  0 hours  2 minutes 39.8 seconds.
 File lengths (MBytes):  RWF=    135 Int=      0 D2E=      0 Chk=     24 Scr=      1
 Normal termination of Gaussian 16 at Thu Jan 30 18:41:03 2025.
