 Entering Gaussian System, Link 0=/home/pb777/GAUSSIAN/g16/g16
 Initial command:
 /home/pb777/GAUSSIAN/g16/l1.exe "/home/pb777/GAUSSIAN/g16/scratch/Gau-1062933.inp" -scrdir="/home/pb777/GAUSSIAN/g16/scratch/"
 Entering Link 1 = /home/pb777/GAUSSIAN/g16/l1.exe PID=   1062934.
  
 Copyright (c) 1988,1990,1992,1993,1995,1998,2003,2009,2016,
            Gaussian, Inc.  All Rights Reserved.
  
 This is part of the Gaussian(R) 16 program.  It is based on
 the Gaussian(R) 09 system (copyright 2009, Gaussian, Inc.),
 the Gaussian(R) 03 system (copyright 2003, Gaussian, Inc.),
 the Gaussian(R) 98 system (copyright 1998, Gaussian, Inc.),
 the Gaussian(R) 94 system (copyright 1995, Gaussian, Inc.),
 the Gaussian 92(TM) system (copyright 1992, Gaussian, Inc.),
 the Gaussian 90(TM) system (copyright 1990, Gaussian, Inc.),
 the Gaussian 88(TM) system (copyright 1988, Gaussian, Inc.),
 the Gaussian 86(TM) system (copyright 1986, Carnegie Mellon
 University), and the Gaussian 82(TM) system (copyright 1983,
 Carnegie Mellon University). Gaussian is a federally registered
 trademark of Gaussian, Inc.
  
 This software contains proprietary and confidential information,
 including trade secrets, belonging to Gaussian, Inc.
  
 This software is provided under written license and may be
 used, copied, transmitted, or stored only in accord with that
 written license.
  
 The following legend is applicable only to US Government
 contracts under FAR:
  
                    RESTRICTED RIGHTS LEGEND
  
 Use, reproduction and disclosure by the US Government is
 subject to restrictions as set forth in subparagraphs (a)
 and (c) of the Commercial Computer Software - Restricted
 Rights clause in FAR 52.227-19.
  
 Gaussian, Inc.
 340 Quinnipiac St., Bldg. 40, Wallingford CT 06492
  
  
 ---------------------------------------------------------------
 Warning -- This program may not be used in any manner that
 competes with the business of Gaussian, Inc. or will provide
 assistance to any competitor of Gaussian, Inc.  The licensee
 of this program is prohibited from giving any competitor of
 Gaussian, Inc. access to this program.  By using this program,
 the user acknowledges that Gaussian, Inc. is engaged in the
 business of creating and licensing software in the field of
 computational chemistry and represents and warrants to the
 licensee that it is not a competitor of Gaussian, Inc. and that
 it will not use this program in any manner prohibited above.
 ---------------------------------------------------------------
  

 Cite this work as:
 Gaussian 16, Revision A.03,
 M. J. Frisch, G. W. Trucks, H. B. Schlegel, G. E. Scuseria, 
 M. A. Robb, J. R. Cheeseman, G. Scalmani, V. Barone, 
 G. A. Petersson, H. Nakatsuji, X. Li, M. Caricato, A. V. Marenich, 
 J. Bloino, B. G. Janesko, R. Gomperts, B. Mennucci, H. P. Hratchian, 
 J. V. Ortiz, A. F. Izmaylov, J. L. Sonnenberg, D. Williams-Young, 
 F. Ding, F. Lipparini, F. Egidi, J. Goings, B. Peng, A. Petrone, 
 T. Henderson, D. Ranasinghe, V. G. Zakrzewski, J. Gao, N. Rega, 
 G. Zheng, W. Liang, M. Hada, M. Ehara, K. Toyota, R. Fukuda, 
 J. Hasegawa, M. Ishida, T. Nakajima, Y. Honda, O. Kitao, H. Nakai, 
 T. Vreven, K. Throssell, J. A. Montgomery, Jr., J. E. Peralta, 
 F. Ogliaro, M. J. Bearpark, J. J. Heyd, E. N. Brothers, K. N. Kudin, 
 V. N. Staroverov, T. A. Keith, R. Kobayashi, J. Normand, 
 K. Raghavachari, A. P. Rendell, J. C. Burant, S. S. Iyengar, 
 J. Tomasi, M. Cossi, J. M. Millam, M. Klene, C. Adamo, R. Cammi, 
 J. W. Ochterski, R. L. Martin, K. Morokuma, O. Farkas, 
 J. B. Foresman, and D. J. Fox, Gaussian, Inc., Wallingford CT, 2016.
 
 ******************************************
 Gaussian 16:  ES64L-G16RevA.03 25-Dec-2016
                30-Jan-2025 
 ******************************************
 %NPROC=1', f'%MEM=512MB
 Will use up to    1 processors via shared memory.
 %chk=binder_1h1s.antechamber.chk
 ------------------------
 #P HF/6-31G* OPT(CalcFC)
 ------------------------
 1/10=4,18=20,19=15,38=1/1,3;
 2/9=110,12=2,17=6,18=5,40=1/2;
 3/5=1,6=6,7=1,11=9,25=1,30=1,71=2,140=1/1,2,3;
 4//1;
 5/5=2,38=5/2;
 8/6=4,10=90,11=11/1;
 11/6=1,8=1,9=11,15=111,16=1/1,2,10;
 10/6=1,13=1/2;
 6/7=2,8=2,9=2,10=2,28=1/1;
 7/10=1,18=20,25=1/1,2,3,16;
 1/10=4,18=20,19=15/3(2);
 2/9=110/2;
 99//99;
 2/9=110/2;
 3/5=1,6=6,7=1,11=9,25=1,30=1,71=1/1,2,3;
 4/5=5,16=3,69=1/1;
 5/5=2,38=5/2;
 7//1,2,3,16;
 1/18=20,19=15/3(-5);
 2/9=110/2;
 6/7=2,8=2,9=2,10=2,19=2,28=1/1;
 99/9=1/99;
 Leave Link    1 at Thu Jan 30 14:40:10 2025, MaxMem=           0 cpu:               0.0 elap:               0.0
 (Enter /home/pb777/GAUSSIAN/g16/l101.exe)
 --------------------
 Gaussian Calculation
 --------------------
 Symbolic Z-matrix:
 Charge =  0 Multiplicity = 1
 C                     1.422     29.034    6.768 
 C                    -1.45      32.163    8.008 
 C                    -0.582     26.625    8.978 
 C                    -1.25      25.767    10.081 
 C                    -1.355     24.331    9.527 
 C                    -1.653     23.273    10.603 
 C                    -0.781     23.343    11.865 
 C                    -0.712     24.779    12.432 
 C                    -0.388     25.86     11.38 
 C                     4.583     25.671    5.79 
 C                     4.57      25.177    7.1 
 C                     3.98      25.92     8.12 
 C                     3.341     27.116    7.808 
 N                     0.488     28.18     7.498 
 C                    -0.568     28.637    8.086 
 O                    -1.389     27.808    8.752 
 C                    -0.837     30.059    7.987 
 N                    -1.806     31.022    8.425 
 N                    -0.337     32.096    7.318 
 C                     0.012     30.844    7.311 
 N                     1.172     30.278    6.709 
 N                     2.523     28.721    6.157 
 C                     3.275     27.581    6.488 
 C                     3.94      26.874    5.49 
 H                    -1.974     33.085    8.159 
 H                    -0.541     26.054    8.043 
 H                     0.454     26.776    9.31 
 H                    -2.258     26.125    10.296 
 H                    -0.409     24.042    9.064 
 H                    -2.106     24.282    8.736 
 H                    -1.609     22.271    10.176 
 H                    -2.684     23.422    10.916 
 H                     0.23      23.014    11.618 
 H                    -1.152     22.652    12.623 
 H                    -0.026     24.811    13.272 
 H                    -1.687     25.018    12.862 
 H                    -0.474     26.853    11.824 
 H                     0.671     25.729    11.148 
 H                     5.065     25.116    4.996 
 H                     3.985     25.564    9.142 
 H                     2.843     27.66     8.593 
 H                     0.088     32.896    6.844 
 H                     3.004     29.48     5.695 
 H                     3.928     27.237    4.475 
 S                     5.309     23.592    7.468 
 O                     6.599     23.833    8.108 
 O                     5.215     22.771    6.258 
 H                     4.494     23.252    9.585 
 N                     4.322     22.837    8.644 
 H                     3.34      22.918    8.389 
 
 ITRead=  0  0  0  0  0  0  0  0  0  0  0  0  0  0  0  0  0  0  0  0
 ITRead=  0  0  0  0  0  0  0  0  0  0  0  0  0  0  0  0  0  0  0  0
 ITRead=  0  0  0  0  0  0  0  0  0  0
 MicOpt= -1 -1 -1 -1 -1 -1 -1 -1 -1 -1 -1 -1 -1 -1 -1 -1 -1 -1 -1 -1
 MicOpt= -1 -1 -1 -1 -1 -1 -1 -1 -1 -1 -1 -1 -1 -1 -1 -1 -1 -1 -1 -1
 MicOpt= -1 -1 -1 -1 -1 -1 -1 -1 -1 -1
 NAtoms=     50 NQM=       50 NQMF=       0 NMMI=      0 NMMIF=      0
                NMic=       0 NMicF=      0.
                    Isotopes and Nuclear Properties:
 (Nuclear quadrupole moments (NQMom) in fm**2, nuclear magnetic moments (NMagM)
  in nuclear magnetons)

  Atom         1           2           3           4           5           6           7           8           9          10
 IAtWgt=          12          12          12          12          12          12          12          12          12          12
 AtmWgt=  12.0000000  12.0000000  12.0000000  12.0000000  12.0000000  12.0000000  12.0000000  12.0000000  12.0000000  12.0000000
 NucSpn=           0           0           0           0           0           0           0           0           0           0
 AtZEff=  -0.0000000  -0.0000000  -0.0000000  -0.0000000  -0.0000000  -0.0000000  -0.0000000  -0.0000000  -0.0000000  -0.0000000
 NQMom=    0.0000000   0.0000000   0.0000000   0.0000000   0.0000000   0.0000000   0.0000000   0.0000000   0.0000000   0.0000000
 NMagM=    0.0000000   0.0000000   0.0000000   0.0000000   0.0000000   0.0000000   0.0000000   0.0000000   0.0000000   0.0000000
 AtZNuc=   6.0000000   6.0000000   6.0000000   6.0000000   6.0000000   6.0000000   6.0000000   6.0000000   6.0000000   6.0000000

  Atom        11          12          13          14          15          16          17          18          19          20
 IAtWgt=          12          12          12          14          12          16          12          14          14          12
 AtmWgt=  12.0000000  12.0000000  12.0000000  14.0030740  12.0000000  15.9949146  12.0000000  14.0030740  14.0030740  12.0000000
 NucSpn=           0           0           0           2           0           0           0           2           2           0
 AtZEff=  -0.0000000  -0.0000000  -0.0000000  -0.0000000  -0.0000000  -0.0000000  -0.0000000  -0.0000000  -0.0000000  -0.0000000
 NQMom=    0.0000000   0.0000000   0.0000000   2.0440000   0.0000000   0.0000000   0.0000000   2.0440000   2.0440000   0.0000000
 NMagM=    0.0000000   0.0000000   0.0000000   0.4037610   0.0000000   0.0000000   0.0000000   0.4037610   0.4037610   0.0000000
 AtZNuc=   6.0000000   6.0000000   6.0000000   7.0000000   6.0000000   8.0000000   6.0000000   7.0000000   7.0000000   6.0000000

  Atom        21          22          23          24          25          26          27          28          29          30
 IAtWgt=          14          14          12          12           1           1           1           1           1           1
 AtmWgt=  14.0030740  14.0030740  12.0000000  12.0000000   1.0078250   1.0078250   1.0078250   1.0078250   1.0078250   1.0078250
 NucSpn=           2           2           0           0           1           1           1           1           1           1
 AtZEff=  -0.0000000  -0.0000000  -0.0000000  -0.0000000  -0.0000000  -0.0000000  -0.0000000  -0.0000000  -0.0000000  -0.0000000
 NQMom=    2.0440000   2.0440000   0.0000000   0.0000000   0.0000000   0.0000000   0.0000000   0.0000000   0.0000000   0.0000000
 NMagM=    0.4037610   0.4037610   0.0000000   0.0000000   2.7928460   2.7928460   2.7928460   2.7928460   2.7928460   2.7928460
 AtZNuc=   7.0000000   7.0000000   6.0000000   6.0000000   1.0000000   1.0000000   1.0000000   1.0000000   1.0000000   1.0000000

  Atom        31          32          33          34          35          36          37          38          39          40
 IAtWgt=           1           1           1           1           1           1           1           1           1           1
 AtmWgt=   1.0078250   1.0078250   1.0078250   1.0078250   1.0078250   1.0078250   1.0078250   1.0078250   1.0078250   1.0078250
 NucSpn=           1           1           1           1           1           1           1           1           1           1
 AtZEff=  -0.0000000  -0.0000000  -0.0000000  -0.0000000  -0.0000000  -0.0000000  -0.0000000  -0.0000000  -0.0000000  -0.0000000
 NQMom=    0.0000000   0.0000000   0.0000000   0.0000000   0.0000000   0.0000000   0.0000000   0.0000000   0.0000000   0.0000000
 NMagM=    2.7928460   2.7928460   2.7928460   2.7928460   2.7928460   2.7928460   2.7928460   2.7928460   2.7928460   2.7928460
 AtZNuc=   1.0000000   1.0000000   1.0000000   1.0000000   1.0000000   1.0000000   1.0000000   1.0000000   1.0000000   1.0000000

  Atom        41          42          43          44          45          46          47          48          49          50
 IAtWgt=           1           1           1           1          32          16          16           1          14           1
 AtmWgt=   1.0078250   1.0078250   1.0078250   1.0078250  31.9720718  15.9949146  15.9949146   1.0078250  14.0030740   1.0078250
 NucSpn=           1           1           1           1           0           0           0           1           2           1
 AtZEff=  -0.0000000  -0.0000000  -0.0000000  -0.0000000  -0.0000000  -0.0000000  -0.0000000  -0.0000000  -0.0000000  -0.0000000
 NQMom=    0.0000000   0.0000000   0.0000000   0.0000000   0.0000000   0.0000000   0.0000000   0.0000000   2.0440000   0.0000000
 NMagM=    2.7928460   2.7928460   2.7928460   2.7928460   0.0000000   0.0000000   0.0000000   2.7928460   0.4037610   2.7928460
 AtZNuc=   1.0000000   1.0000000   1.0000000   1.0000000  16.0000000   8.0000000   8.0000000   1.0000000   7.0000000   1.0000000
 Leave Link  101 at Thu Jan 30 14:40:10 2025, MaxMem=   104857600 cpu:               0.2 elap:               0.2
 (Enter /home/pb777/GAUSSIAN/g16/l103.exe)

 GradGradGradGradGradGradGradGradGradGradGradGradGradGradGradGradGradGrad
 Berny optimization.
 Initialization pass.
                           ----------------------------
                           !    Initial Parameters    !
                           ! (Angstroms and Degrees)  !
 --------------------------                            --------------------------
 ! Name  Definition              Value          Derivative Info.                !
 --------------------------------------------------------------------------------
 ! R1    R(1,14)                 1.461          calculate D2E/DX2 analytically  !
 ! R2    R(1,21)                 1.2702         calculate D2E/DX2 analytically  !
 ! R3    R(1,22)                 1.2975         calculate D2E/DX2 analytically  !
 ! R4    R(2,18)                 1.2659         calculate D2E/DX2 analytically  !
 ! R5    R(2,19)                 1.3112         calculate D2E/DX2 analytically  !
 ! R6    R(2,25)                 1.0712         calculate D2E/DX2 analytically  !
 ! R7    R(3,4)                  1.5489         calculate D2E/DX2 analytically  !
 ! R8    R(3,16)                 1.4498         calculate D2E/DX2 analytically  !
 ! R9    R(3,26)                 1.0963         calculate D2E/DX2 analytically  !
 ! R10   R(3,27)                 1.0983         calculate D2E/DX2 analytically  !
 ! R11   R(4,5)                  1.5427         calculate D2E/DX2 analytically  !
 ! R12   R(4,9)                  1.5618         calculate D2E/DX2 analytically  !
 ! R13   R(4,28)                 1.0911         calculate D2E/DX2 analytically  !
 ! R14   R(5,6)                  1.5382         calculate D2E/DX2 analytically  !
 ! R15   R(5,29)                 1.0922         calculate D2E/DX2 analytically  !
 ! R16   R(5,30)                 1.0918         calculate D2E/DX2 analytically  !
 ! R17   R(6,7)                  1.5356         calculate D2E/DX2 analytically  !
 ! R18   R(6,31)                 1.0901         calculate D2E/DX2 analytically  !
 ! R19   R(6,32)                 1.0877         calculate D2E/DX2 analytically  !
 ! R20   R(7,8)                  1.5454         calculate D2E/DX2 analytically  !
 ! R21   R(7,33)                 1.0915         calculate D2E/DX2 analytically  !
 ! R22   R(7,34)                 1.0907         calculate D2E/DX2 analytically  !
 ! R23   R(8,9)                  1.5428         calculate D2E/DX2 analytically  !
 ! R24   R(8,35)                 1.085          calculate D2E/DX2 analytically  !
 ! R25   R(8,36)                 1.0921         calculate D2E/DX2 analytically  !
 ! R26   R(9,37)                 1.0911         calculate D2E/DX2 analytically  !
 ! R27   R(9,38)                 1.092          calculate D2E/DX2 analytically  !
 ! R28   R(10,11)                1.4001         calculate D2E/DX2 analytically  !
 ! R29   R(10,24)                1.3967         calculate D2E/DX2 analytically  !
 ! R30   R(10,39)                1.082          calculate D2E/DX2 analytically  !
 ! R31   R(11,12)                1.393          calculate D2E/DX2 analytically  !
 ! R32   R(11,45)                1.7871         calculate D2E/DX2 analytically  !
 ! R33   R(12,13)                1.3914         calculate D2E/DX2 analytically  !
 ! R34   R(12,40)                1.0822         calculate D2E/DX2 analytically  !
 ! R35   R(13,23)                1.4011         calculate D2E/DX2 analytically  !
 ! R36   R(13,41)                1.0771         calculate D2E/DX2 analytically  !
 ! R37   R(14,15)                1.2922         calculate D2E/DX2 analytically  !
 ! R38   R(15,16)                1.3434         calculate D2E/DX2 analytically  !
 ! R39   R(15,17)                1.4506         calculate D2E/DX2 analytically  !
 ! R40   R(17,18)                1.4346         calculate D2E/DX2 analytically  !
 ! R41   R(17,20)                1.3394         calculate D2E/DX2 analytically  !
 ! R42   R(19,20)                1.2998         calculate D2E/DX2 analytically  !
 ! R43   R(19,42)                1.0224         calculate D2E/DX2 analytically  !
 ! R44   R(20,21)                1.4242         calculate D2E/DX2 analytically  !
 ! R45   R(22,23)                1.4052         calculate D2E/DX2 analytically  !
 ! R46   R(22,43)                1.0104         calculate D2E/DX2 analytically  !
 ! R47   R(23,24)                1.3921         calculate D2E/DX2 analytically  !
 ! R48   R(24,44)                1.078          calculate D2E/DX2 analytically  !
 ! R49   R(45,46)                1.4601         calculate D2E/DX2 analytically  !
 ! R50   R(45,47)                1.4653         calculate D2E/DX2 analytically  !
 ! R51   R(45,49)                1.7109         calculate D2E/DX2 analytically  !
 ! R52   R(48,49)                1.0427         calculate D2E/DX2 analytically  !
 ! R53   R(49,50)                1.0178         calculate D2E/DX2 analytically  !
 ! A1    A(14,1,21)            118.0237         calculate D2E/DX2 analytically  !
 ! A2    A(14,1,22)            129.5499         calculate D2E/DX2 analytically  !
 ! A3    A(21,1,22)            112.4195         calculate D2E/DX2 analytically  !
 ! A4    A(18,2,19)            111.4686         calculate D2E/DX2 analytically  !
 ! A5    A(18,2,25)            126.2845         calculate D2E/DX2 analytically  !
 ! A6    A(19,2,25)            122.2337         calculate D2E/DX2 analytically  !
 ! A7    A(4,3,16)             108.8423         calculate D2E/DX2 analytically  !
 ! A8    A(4,3,26)             109.5696         calculate D2E/DX2 analytically  !
 ! A9    A(4,3,27)             105.5277         calculate D2E/DX2 analytically  !
 ! A10   A(16,3,26)            108.2318         calculate D2E/DX2 analytically  !
 ! A11   A(16,3,27)            117.3866         calculate D2E/DX2 analytically  !
 ! A12   A(26,3,27)            107.1051         calculate D2E/DX2 analytically  !
 ! A13   A(3,4,5)              106.8132         calculate D2E/DX2 analytically  !
 ! A14   A(3,4,9)              108.7409         calculate D2E/DX2 analytically  !
 ! A15   A(3,4,28)             110.9167         calculate D2E/DX2 analytically  !
 ! A16   A(5,4,9)              113.059          calculate D2E/DX2 analytically  !
 ! A17   A(5,4,28)             108.2581         calculate D2E/DX2 analytically  !
 ! A18   A(9,4,28)             109.0551         calculate D2E/DX2 analytically  !
 ! A19   A(4,5,6)              113.7174         calculate D2E/DX2 analytically  !
 ! A20   A(4,5,29)             109.8518         calculate D2E/DX2 analytically  !
 ! A21   A(4,5,30)             110.4108         calculate D2E/DX2 analytically  !
 ! A22   A(6,5,29)             106.4009         calculate D2E/DX2 analytically  !
 ! A23   A(6,5,30)             110.0394         calculate D2E/DX2 analytically  !
 ! A24   A(29,5,30)            106.0685         calculate D2E/DX2 analytically  !
 ! A25   A(5,6,7)              115.6925         calculate D2E/DX2 analytically  !
 ! A26   A(5,6,31)             110.5129         calculate D2E/DX2 analytically  !
 ! A27   A(5,6,32)             106.9005         calculate D2E/DX2 analytically  !
 ! A28   A(7,6,31)             109.9325         calculate D2E/DX2 analytically  !
 ! A29   A(7,6,32)             107.1888         calculate D2E/DX2 analytically  !
 ! A30   A(31,6,32)            106.0749         calculate D2E/DX2 analytically  !
 ! A31   A(6,7,8)              111.6688         calculate D2E/DX2 analytically  !
 ! A32   A(6,7,33)             109.0426         calculate D2E/DX2 analytically  !
 ! A33   A(6,7,34)             110.4329         calculate D2E/DX2 analytically  !
 ! A34   A(8,7,33)             108.7686         calculate D2E/DX2 analytically  !
 ! A35   A(8,7,34)             110.4189         calculate D2E/DX2 analytically  !
 ! A36   A(33,7,34)            106.3414         calculate D2E/DX2 analytically  !
 ! A37   A(7,8,9)              114.2214         calculate D2E/DX2 analytically  !
 ! A38   A(7,8,35)             109.8572         calculate D2E/DX2 analytically  !
 ! A39   A(7,8,36)             107.9358         calculate D2E/DX2 analytically  !
 ! A40   A(9,8,35)             111.991          calculate D2E/DX2 analytically  !
 ! A41   A(9,8,36)             107.616          calculate D2E/DX2 analytically  !
 ! A42   A(35,8,36)            104.6661         calculate D2E/DX2 analytically  !
 ! A43   A(4,9,8)              114.1745         calculate D2E/DX2 analytically  !
 ! A44   A(4,9,37)             110.4349         calculate D2E/DX2 analytically  !
 ! A45   A(4,9,38)             110.5735         calculate D2E/DX2 analytically  !
 ! A46   A(8,9,37)             110.0986         calculate D2E/DX2 analytically  !
 ! A47   A(8,9,38)             105.3356         calculate D2E/DX2 analytically  !
 ! A48   A(37,9,38)            105.7868         calculate D2E/DX2 analytically  !
 ! A49   A(11,10,24)           120.0401         calculate D2E/DX2 analytically  !
 ! A50   A(11,10,39)           120.6466         calculate D2E/DX2 analytically  !
 ! A51   A(24,10,39)           119.2923         calculate D2E/DX2 analytically  !
 ! A52   A(10,11,12)           120.0552         calculate D2E/DX2 analytically  !
 ! A53   A(10,11,45)           120.1161         calculate D2E/DX2 analytically  !
 ! A54   A(12,11,45)           119.8287         calculate D2E/DX2 analytically  !
 ! A55   A(11,12,13)           119.2601         calculate D2E/DX2 analytically  !
 ! A56   A(11,12,40)           120.934          calculate D2E/DX2 analytically  !
 ! A57   A(13,12,40)           119.7763         calculate D2E/DX2 analytically  !
 ! A58   A(12,13,23)           121.2092         calculate D2E/DX2 analytically  !
 ! A59   A(12,13,41)           118.8834         calculate D2E/DX2 analytically  !
 ! A60   A(23,13,41)           119.817          calculate D2E/DX2 analytically  !
 ! A61   A(1,14,15)            122.8931         calculate D2E/DX2 analytically  !
 ! A62   A(14,15,16)           120.4487         calculate D2E/DX2 analytically  !
 ! A63   A(14,15,17)           117.8516         calculate D2E/DX2 analytically  !
 ! A64   A(16,15,17)           121.696          calculate D2E/DX2 analytically  !
 ! A65   A(3,16,15)            103.9239         calculate D2E/DX2 analytically  !
 ! A66   A(15,17,18)           139.6791         calculate D2E/DX2 analytically  !
 ! A67   A(15,17,20)           119.4344         calculate D2E/DX2 analytically  !
 ! A68   A(18,17,20)           100.8835         calculate D2E/DX2 analytically  !
 ! A69   A(2,18,17)            108.3309         calculate D2E/DX2 analytically  !
 ! A70   A(2,19,20)            106.2584         calculate D2E/DX2 analytically  !
 ! A71   A(2,19,42)            123.8364         calculate D2E/DX2 analytically  !
 ! A72   A(20,19,42)           129.7628         calculate D2E/DX2 analytically  !
 ! A73   A(17,20,19)           113.056          calculate D2E/DX2 analytically  !
 ! A74   A(17,20,21)           119.7814         calculate D2E/DX2 analytically  !
 ! A75   A(19,20,21)           127.1419         calculate D2E/DX2 analytically  !
 ! A76   A(1,21,20)            121.9969         calculate D2E/DX2 analytically  !
 ! A77   A(1,22,23)            122.6076         calculate D2E/DX2 analytically  !
 ! A78   A(1,22,43)            115.9807         calculate D2E/DX2 analytically  !
 ! A79   A(23,22,43)           117.5395         calculate D2E/DX2 analytically  !
 ! A80   A(13,23,22)           121.0896         calculate D2E/DX2 analytically  !
 ! A81   A(13,23,24)           118.9697         calculate D2E/DX2 analytically  !
 ! A82   A(22,23,24)           119.9182         calculate D2E/DX2 analytically  !
 ! A83   A(10,24,23)           120.2227         calculate D2E/DX2 analytically  !
 ! A84   A(10,24,44)           119.8282         calculate D2E/DX2 analytically  !
 ! A85   A(23,24,44)           119.9103         calculate D2E/DX2 analytically  !
 ! A86   A(11,45,46)           108.0122         calculate D2E/DX2 analytically  !
 ! A87   A(11,45,47)           107.4798         calculate D2E/DX2 analytically  !
 ! A88   A(11,45,49)           107.1197         calculate D2E/DX2 analytically  !
 ! A89   A(46,45,47)           120.74           calculate D2E/DX2 analytically  !
 ! A90   A(46,45,49)           106.3343         calculate D2E/DX2 analytically  !
 ! A91   A(47,45,49)           106.4601         calculate D2E/DX2 analytically  !
 ! A92   A(45,49,48)           110.4573         calculate D2E/DX2 analytically  !
 ! A93   A(45,49,50)           110.4426         calculate D2E/DX2 analytically  !
 ! A94   A(48,49,50)           110.7061         calculate D2E/DX2 analytically  !
 ! D1    D(21,1,14,15)          -0.3723         calculate D2E/DX2 analytically  !
 ! D2    D(22,1,14,15)         178.5919         calculate D2E/DX2 analytically  !
 ! D3    D(14,1,21,20)          -0.941          calculate D2E/DX2 analytically  !
 ! D4    D(22,1,21,20)         179.9229         calculate D2E/DX2 analytically  !
 ! D5    D(14,1,22,23)         -24.1001         calculate D2E/DX2 analytically  !
 ! D6    D(14,1,22,43)         178.6325         calculate D2E/DX2 analytically  !
 ! D7    D(21,1,22,23)         154.9108         calculate D2E/DX2 analytically  !
 ! D8    D(21,1,22,43)          -2.3565         calculate D2E/DX2 analytically  !
 ! D9    D(19,2,18,17)           0.3509         calculate D2E/DX2 analytically  !
 ! D10   D(25,2,18,17)         179.0458         calculate D2E/DX2 analytically  !
 ! D11   D(18,2,19,20)          -0.0571         calculate D2E/DX2 analytically  !
 ! D12   D(18,2,19,42)         175.9787         calculate D2E/DX2 analytically  !
 ! D13   D(25,2,19,20)        -178.8134         calculate D2E/DX2 analytically  !
 ! D14   D(25,2,19,42)          -2.7777         calculate D2E/DX2 analytically  !
 ! D15   D(16,3,4,5)           129.1727         calculate D2E/DX2 analytically  !
 ! D16   D(16,3,4,9)          -108.5107         calculate D2E/DX2 analytically  !
 ! D17   D(16,3,4,28)           11.4065         calculate D2E/DX2 analytically  !
 ! D18   D(26,3,4,5)            10.9985         calculate D2E/DX2 analytically  !
 ! D19   D(26,3,4,9)           133.3151         calculate D2E/DX2 analytically  !
 ! D20   D(26,3,4,28)         -106.7678         calculate D2E/DX2 analytically  !
 ! D21   D(27,3,4,5)          -104.0099         calculate D2E/DX2 analytically  !
 ! D22   D(27,3,4,9)            18.3066         calculate D2E/DX2 analytically  !
 ! D23   D(27,3,4,28)          138.2238         calculate D2E/DX2 analytically  !
 ! D24   D(4,3,16,15)          163.4859         calculate D2E/DX2 analytically  !
 ! D25   D(26,3,16,15)         -77.4995         calculate D2E/DX2 analytically  !
 ! D26   D(27,3,16,15)          43.7928         calculate D2E/DX2 analytically  !
 ! D27   D(3,4,5,6)            164.9645         calculate D2E/DX2 analytically  !
 ! D28   D(3,4,5,29)            45.8532         calculate D2E/DX2 analytically  !
 ! D29   D(3,4,5,30)           -70.7837         calculate D2E/DX2 analytically  !
 ! D30   D(9,4,5,6)             45.3994         calculate D2E/DX2 analytically  !
 ! D31   D(9,4,5,29)           -73.7119         calculate D2E/DX2 analytically  !
 ! D32   D(9,4,5,30)           169.6512         calculate D2E/DX2 analytically  !
 ! D33   D(28,4,5,6)           -75.5363         calculate D2E/DX2 analytically  !
 ! D34   D(28,4,5,29)          165.3525         calculate D2E/DX2 analytically  !
 ! D35   D(28,4,5,30)           48.7155         calculate D2E/DX2 analytically  !
 ! D36   D(3,4,9,8)           -164.5526         calculate D2E/DX2 analytically  !
 ! D37   D(3,4,9,37)            70.7518         calculate D2E/DX2 analytically  !
 ! D38   D(3,4,9,38)           -45.9892         calculate D2E/DX2 analytically  !
 ! D39   D(5,4,9,8)            -46.1023         calculate D2E/DX2 analytically  !
 ! D40   D(5,4,9,37)          -170.7978         calculate D2E/DX2 analytically  !
 ! D41   D(5,4,9,38)            72.4611         calculate D2E/DX2 analytically  !
 ! D42   D(28,4,9,8)            74.3803         calculate D2E/DX2 analytically  !
 ! D43   D(28,4,9,37)          -50.3152         calculate D2E/DX2 analytically  !
 ! D44   D(28,4,9,38)         -167.0562         calculate D2E/DX2 analytically  !
 ! D45   D(4,5,6,7)            -48.1359         calculate D2E/DX2 analytically  !
 ! D46   D(4,5,6,31)          -173.8634         calculate D2E/DX2 analytically  !
 ! D47   D(4,5,6,32)            71.1339         calculate D2E/DX2 analytically  !
 ! D48   D(29,5,6,7)            72.9256         calculate D2E/DX2 analytically  !
 ! D49   D(29,5,6,31)          -52.8018         calculate D2E/DX2 analytically  !
 ! D50   D(29,5,6,32)         -167.8045         calculate D2E/DX2 analytically  !
 ! D51   D(30,5,6,7)          -172.588          calculate D2E/DX2 analytically  !
 ! D52   D(30,5,6,31)           61.6846         calculate D2E/DX2 analytically  !
 ! D53   D(30,5,6,32)          -53.3181         calculate D2E/DX2 analytically  !
 ! D54   D(5,6,7,8)             48.8375         calculate D2E/DX2 analytically  !
 ! D55   D(5,6,7,33)           -71.3873         calculate D2E/DX2 analytically  !
 ! D56   D(5,6,7,34)           172.1111         calculate D2E/DX2 analytically  !
 ! D57   D(31,6,7,8)           174.8605         calculate D2E/DX2 analytically  !
 ! D58   D(31,6,7,33)           54.6357         calculate D2E/DX2 analytically  !
 ! D59   D(31,6,7,34)          -61.8659         calculate D2E/DX2 analytically  !
 ! D60   D(32,6,7,8)           -70.2741         calculate D2E/DX2 analytically  !
 ! D61   D(32,6,7,33)          169.5011         calculate D2E/DX2 analytically  !
 ! D62   D(32,6,7,34)           52.9995         calculate D2E/DX2 analytically  !
 ! D63   D(6,7,8,9)            -48.5808         calculate D2E/DX2 analytically  !
 ! D64   D(6,7,8,35)          -175.3816         calculate D2E/DX2 analytically  !
 ! D65   D(6,7,8,36)            71.0503         calculate D2E/DX2 analytically  !
 ! D66   D(33,7,8,9)            71.8045         calculate D2E/DX2 analytically  !
 ! D67   D(33,7,8,35)          -54.9963         calculate D2E/DX2 analytically  !
 ! D68   D(33,7,8,36)         -168.5644         calculate D2E/DX2 analytically  !
 ! D69   D(34,7,8,9)          -171.8623         calculate D2E/DX2 analytically  !
 ! D70   D(34,7,8,35)           61.3369         calculate D2E/DX2 analytically  !
 ! D71   D(34,7,8,36)          -52.2312         calculate D2E/DX2 analytically  !
 ! D72   D(7,8,9,4)             48.3294         calculate D2E/DX2 analytically  !
 ! D73   D(7,8,9,37)           173.2037         calculate D2E/DX2 analytically  !
 ! D74   D(7,8,9,38)           -73.1715         calculate D2E/DX2 analytically  !
 ! D75   D(35,8,9,4)           174.0172         calculate D2E/DX2 analytically  !
 ! D76   D(35,8,9,37)          -61.1085         calculate D2E/DX2 analytically  !
 ! D77   D(35,8,9,38)           52.5164         calculate D2E/DX2 analytically  !
 ! D78   D(36,8,9,4)           -71.4813         calculate D2E/DX2 analytically  !
 ! D79   D(36,8,9,37)           53.393          calculate D2E/DX2 analytically  !
 ! D80   D(36,8,9,38)          167.0179         calculate D2E/DX2 analytically  !
 ! D81   D(24,10,11,12)         -3.5487         calculate D2E/DX2 analytically  !
 ! D82   D(24,10,11,45)        176.4171         calculate D2E/DX2 analytically  !
 ! D83   D(39,10,11,12)        178.1283         calculate D2E/DX2 analytically  !
 ! D84   D(39,10,11,45)         -1.9059         calculate D2E/DX2 analytically  !
 ! D85   D(11,10,24,23)         -0.5217         calculate D2E/DX2 analytically  !
 ! D86   D(11,10,24,44)       -178.2542         calculate D2E/DX2 analytically  !
 ! D87   D(39,10,24,23)        177.824          calculate D2E/DX2 analytically  !
 ! D88   D(39,10,24,44)          0.0915         calculate D2E/DX2 analytically  !
 ! D89   D(10,11,12,13)          3.6191         calculate D2E/DX2 analytically  !
 ! D90   D(10,11,12,40)       -178.3656         calculate D2E/DX2 analytically  !
 ! D91   D(45,11,12,13)       -176.3467         calculate D2E/DX2 analytically  !
 ! D92   D(45,11,12,40)          1.6686         calculate D2E/DX2 analytically  !
 ! D93   D(10,11,45,46)        103.2492         calculate D2E/DX2 analytically  !
 ! D94   D(10,11,45,47)        -28.5022         calculate D2E/DX2 analytically  !
 ! D95   D(10,11,45,49)       -142.5712         calculate D2E/DX2 analytically  !
 ! D96   D(12,11,45,46)        -76.785          calculate D2E/DX2 analytically  !
 ! D97   D(12,11,45,47)        151.4636         calculate D2E/DX2 analytically  !
 ! D98   D(12,11,45,49)         37.3947         calculate D2E/DX2 analytically  !
 ! D99   D(11,12,13,23)          0.3359         calculate D2E/DX2 analytically  !
 ! D100  D(11,12,13,41)        176.8718         calculate D2E/DX2 analytically  !
 ! D101  D(40,12,13,23)       -177.7028         calculate D2E/DX2 analytically  !
 ! D102  D(40,12,13,41)         -1.1668         calculate D2E/DX2 analytically  !
 ! D103  D(12,13,23,22)        173.9283         calculate D2E/DX2 analytically  !
 ! D104  D(12,13,23,24)         -4.3442         calculate D2E/DX2 analytically  !
 ! D105  D(41,13,23,22)         -2.5757         calculate D2E/DX2 analytically  !
 ! D106  D(41,13,23,24)        179.1518         calculate D2E/DX2 analytically  !
 ! D107  D(1,14,15,16)        -179.5335         calculate D2E/DX2 analytically  !
 ! D108  D(1,14,15,17)           1.1588         calculate D2E/DX2 analytically  !
 ! D109  D(14,15,16,3)          18.2854         calculate D2E/DX2 analytically  !
 ! D110  D(17,15,16,3)        -162.4339         calculate D2E/DX2 analytically  !
 ! D111  D(14,15,17,18)       -179.8954         calculate D2E/DX2 analytically  !
 ! D112  D(14,15,17,20)         -0.6675         calculate D2E/DX2 analytically  !
 ! D113  D(16,15,17,18)          0.806          calculate D2E/DX2 analytically  !
 ! D114  D(16,15,17,20)       -179.9661         calculate D2E/DX2 analytically  !
 ! D115  D(15,17,18,2)         178.8317         calculate D2E/DX2 analytically  !
 ! D116  D(20,17,18,2)          -0.4835         calculate D2E/DX2 analytically  !
 ! D117  D(15,17,20,19)       -179.0241         calculate D2E/DX2 analytically  !
 ! D118  D(15,17,20,21)         -0.5623         calculate D2E/DX2 analytically  !
 ! D119  D(18,17,20,19)          0.4672         calculate D2E/DX2 analytically  !
 ! D120  D(18,17,20,21)        178.9289         calculate D2E/DX2 analytically  !
 ! D121  D(2,19,20,17)          -0.2906         calculate D2E/DX2 analytically  !
 ! D122  D(2,19,20,21)        -178.6158         calculate D2E/DX2 analytically  !
 ! D123  D(42,19,20,17)       -176.0064         calculate D2E/DX2 analytically  !
 ! D124  D(42,19,20,21)          5.6685         calculate D2E/DX2 analytically  !
 ! D125  D(17,20,21,1)           1.4077         calculate D2E/DX2 analytically  !
 ! D126  D(19,20,21,1)         179.6321         calculate D2E/DX2 analytically  !
 ! D127  D(1,22,23,13)         -33.4508         calculate D2E/DX2 analytically  !
 ! D128  D(1,22,23,24)         144.8055         calculate D2E/DX2 analytically  !
 ! D129  D(43,22,23,13)        123.4845         calculate D2E/DX2 analytically  !
 ! D130  D(43,22,23,24)        -58.2592         calculate D2E/DX2 analytically  !
 ! D131  D(13,23,24,10)          4.4            calculate D2E/DX2 analytically  !
 ! D132  D(13,23,24,44)       -177.8694         calculate D2E/DX2 analytically  !
 ! D133  D(22,23,24,10)       -173.8932         calculate D2E/DX2 analytically  !
 ! D134  D(22,23,24,44)          3.8374         calculate D2E/DX2 analytically  !
 ! D135  D(11,45,49,48)        -76.9736         calculate D2E/DX2 analytically  !
 ! D136  D(11,45,49,50)         45.8316         calculate D2E/DX2 analytically  !
 ! D137  D(46,45,49,48)         38.3313         calculate D2E/DX2 analytically  !
 ! D138  D(46,45,49,50)        161.1365         calculate D2E/DX2 analytically  !
 ! D139  D(47,45,49,48)        168.2719         calculate D2E/DX2 analytically  !
 ! D140  D(47,45,49,50)        -68.9229         calculate D2E/DX2 analytically  !
 --------------------------------------------------------------------------------
 Trust Radius=3.00D-01 FncErr=1.00D-07 GrdErr=1.00D-07 EigMax=2.50D+02 EigMin=1.00D-04
 Number of steps in this run=    297 maximum allowed number of steps=    300.
 GradGradGradGradGradGradGradGradGradGradGradGradGradGradGradGradGradGrad

 Leave Link  103 at Thu Jan 30 14:40:10 2025, MaxMem=   104857600 cpu:               0.0 elap:               0.0
 (Enter /home/pb777/GAUSSIAN/g16/l202.exe)
                          Input orientation:                          
 ---------------------------------------------------------------------
 Center     Atomic      Atomic             Coordinates (Angstroms)
 Number     Number       Type             X           Y           Z
 ---------------------------------------------------------------------
      1          6           0        1.422000   29.034000    6.768000
      2          6           0       -1.450000   32.163000    8.008000
      3          6           0       -0.582000   26.625000    8.978000
      4          6           0       -1.250000   25.767000   10.081000
      5          6           0       -1.355000   24.331000    9.527000
      6          6           0       -1.653000   23.273000   10.603000
      7          6           0       -0.781000   23.343000   11.865000
      8          6           0       -0.712000   24.779000   12.432000
      9          6           0       -0.388000   25.860000   11.380000
     10          6           0        4.583000   25.671000    5.790000
     11          6           0        4.570000   25.177000    7.100000
     12          6           0        3.980000   25.920000    8.120000
     13          6           0        3.341000   27.116000    7.808000
     14          7           0        0.488000   28.180000    7.498000
     15          6           0       -0.568000   28.637000    8.086000
     16          8           0       -1.389000   27.808000    8.752000
     17          6           0       -0.837000   30.059000    7.987000
     18          7           0       -1.806000   31.022000    8.425000
     19          7           0       -0.337000   32.096000    7.318000
     20          6           0        0.012000   30.844000    7.311000
     21          7           0        1.172000   30.278000    6.709000
     22          7           0        2.523000   28.721000    6.157000
     23          6           0        3.275000   27.581000    6.488000
     24          6           0        3.940000   26.874000    5.490000
     25          1           0       -1.974000   33.085000    8.159000
     26          1           0       -0.541000   26.054000    8.043000
     27          1           0        0.454000   26.776000    9.310000
     28          1           0       -2.258000   26.125000   10.296000
     29          1           0       -0.409000   24.042000    9.064000
     30          1           0       -2.106000   24.282000    8.736000
     31          1           0       -1.609000   22.271000   10.176000
     32          1           0       -2.684000   23.422000   10.916000
     33          1           0        0.230000   23.014000   11.618000
     34          1           0       -1.152000   22.652000   12.623000
     35          1           0       -0.026000   24.811000   13.272000
     36          1           0       -1.687000   25.018000   12.862000
     37          1           0       -0.474000   26.853000   11.824000
     38          1           0        0.671000   25.729000   11.148000
     39          1           0        5.065000   25.116000    4.996000
     40          1           0        3.985000   25.564000    9.142000
     41          1           0        2.843000   27.660000    8.593000
     42          1           0        0.088000   32.896000    6.844000
     43          1           0        3.004000   29.480000    5.695000
     44          1           0        3.928000   27.237000    4.475000
     45         16           0        5.309000   23.592000    7.468000
     46          8           0        6.599000   23.833000    8.108000
     47          8           0        5.215000   22.771000    6.258000
     48          1           0        4.494000   23.252000    9.585000
     49          7           0        4.322000   22.837000    8.644000
     50          1           0        3.340000   22.918000    8.389000
 ---------------------------------------------------------------------
                    Distance matrix (angstroms):
                    1          2          3          4          5
     1  C    0.000000
     2  C    4.424548   0.000000
     3  C    3.834501   5.688916   0.000000
     4  C    5.365523   6.726525   1.548870   0.000000
     5  C    6.118988   7.978509   2.482210   1.542737   0.000000
     6  C    7.573108   9.263225   3.876025   2.579715   1.538163
     7  C    7.951107   9.649684   4.375602   3.046045   2.602281
     8  C    7.398640   8.639437   3.918511   2.606298   3.008850
     9  C    5.883954   7.226758   2.528332   1.561760   2.589699
    10  C    4.717857   9.135791   6.144159   7.241946   7.142871
    11  C    4.989647   9.266556   5.671569   6.565582   6.458457
    12  C    4.250678   8.274811   4.695214   5.587650   5.741672
    13  C    2.905664   6.961745   4.123095   5.297510   5.723950
    14  N    1.461017   4.458725   2.398609   3.938921   4.725282
    15  C    2.419676   3.635476   2.200910   3.561186   4.608415
    16  O    3.652541   4.418516   1.449763   2.439517   3.562486
    17  C    2.763995   2.191581   3.583220   4.793398   5.953983
    18  N    4.137364   1.265901   4.597564   5.537734   6.796123
    19  N    3.573853   1.311243   5.722540   6.965916   8.137028
    20  C    2.357764   2.088783   4.575116   5.919584   7.014165
    21  N    1.270243   3.480734   4.644275   6.130709   7.049373
    22  N    1.297494   5.572997   4.689593   6.193498   6.757802
    23  C    2.371333   6.755054   4.689401   6.056061   6.421442
    24  C    3.555166   7.960273   5.716348   7.017039   7.127499
    25  H    5.466104   1.071196   6.658831   7.600749   8.881841
    26  H    3.789379   6.176357   1.096333   2.176808   2.415281
    27  H    3.535159   5.860050   1.098326   2.125121   3.049196
    28  H    5.869537   6.507323   2.190000   1.091079   2.150629
    29  H    5.791739   8.255268   2.590215   2.171910   1.092157
    30  H    6.237092   7.941693   2.805493   2.178758   1.091826
    31  H    8.157181  10.128039   4.631117   3.515668   2.174699
    32  H    8.096893   9.294316   4.293420   2.872735   2.126463
    33  H    7.822005   9.977911   4.546236   3.483070   2.935812
    34  H    9.035288  10.575734   5.421776   4.021765   3.527813
    35  H    7.888755   9.153654   4.694483   3.548886   4.002707
    36  H    7.932904   8.641094   4.346140   2.913062   3.421172
    37  H    5.823634   6.611394   2.857160   2.195364   3.523188
    38  H    5.538179   7.466900   2.661151   2.197766   2.947324
    39  H    5.635792  10.058707   7.072624   8.133895   7.896999
    40  H    4.923997   8.623919   4.691493   5.322420   5.494007
    41  H    2.690305   6.248927   3.598621   4.748710   5.438548
    42  H    4.086609   2.063402   6.657950   7.942988   9.090653
    43  H    1.962898   5.690920   5.638130   7.149817   7.758692
    44  H    3.842798   8.103731   6.402472   7.771732   7.866233
    45  S    6.724146  10.928757   6.795813   7.387752   7.013879
    46  O    7.459714  11.583838   7.753639   8.321051   8.094917
    47  O    7.339763  11.648793   7.473749   8.086258   7.502324
    48  H    7.127706  10.827003   6.124651   6.290054   5.947975
    49  N    7.094518  10.986117   6.205620   6.457326   5.936333
    50  H    6.611492  10.419179   5.428706   5.661075   5.033353
                    6          7          8          9         10
     6  C    0.000000
     7  C    1.535555   0.000000
     8  C    2.549266   1.545427   0.000000
     9  C    2.982704   2.593253   1.542803   0.000000
    10  C    8.234262   8.431946   8.541010   7.482958   0.000000
    11  C    7.390667   7.396079   7.515860   6.585336   1.400109
    12  C    6.700939   6.582786   6.473800   5.450745   2.419609
    13  C    6.893527   6.905481   6.577975   5.314335   2.775412
    14  N    6.188987   6.639098   6.111559   4.606485   5.097192
    15  C    6.023704   6.507891   5.813142   4.312142   6.371936
    16  O    4.905316   5.476920   4.814101   3.420978   7.000357
    17  C    7.318409   7.755429   6.903046   5.417163   7.311481
    18  N    8.050720   8.476513   7.498529   6.114654   8.740466
    19  N    9.506230   9.873568   8.934882   7.442455   8.235400
    20  C    8.421967   8.810946   7.970762   6.446473   7.068763
    21  N    8.497875   8.859615   8.157278   6.615933   5.805509
    22  N    8.178423   8.510027   8.085803   6.628648   3.698755
    23  C    7.731576   7.957632   7.686255   6.349100   2.417885
    24  C    8.389971   8.683112   8.615190   7.379152   1.396660
    25  H   10.116893  10.491151   9.425540   8.067891  10.177122
    26  H    3.940064   4.691994   4.573640   3.346134   5.610532
    27  H    4.287459   4.454070   3.885158   2.415144   5.537153
    28  H    2.931583   3.518922   2.960461   2.177655   8.204233
    29  H    2.123068   2.910771   3.460983   2.944388   6.188116
    30  H    2.170018   3.525335   3.981289   3.525953   7.439822
    31  H    1.090078   2.165061   3.490589   3.977610   8.314918
    32  H    1.087718   2.127969   2.833459   3.380940   9.172958
    33  H    2.154761   1.091499   2.159904   2.922034   7.744278
    34  H    2.171875   1.090727   2.180415   3.524203   9.417774
    35  H    3.483695   2.169032   1.084998   2.193424   8.829655
    36  H    2.854691   2.149528   1.092083   2.143056   9.473779
    37  H    3.961980   3.523639   2.174347   1.091137   7.961126
    38  H    3.424900   2.883642   2.112781   1.092001   6.634401
    39  H    8.942406   9.192519   9.422388   8.428772   1.082028
    40  H    6.258614   5.921345   5.788103   4.921320   3.406605
    41  H    6.595444   6.517350   5.972948   4.631061   3.852341
    42  H   10.476798  10.827068   9.886932   8.384937   8.574180
    43  H    9.181664   9.489884   9.016387   7.545150   4.124409
    44  H    9.187668   9.589057   9.533374   8.258511   2.147232
    45  S    7.641952   7.515565   7.893206   7.273471   2.768574
    46  O    8.639105   8.295755   8.546497   7.977022   3.579892
    47  O    8.142509   8.229073   8.790886   8.195756   3.004738
    48  H    6.230760   5.747374   6.126955   5.818730   4.501278
    49  N    6.303047   6.055699   6.592531   6.229633   4.030508
    50  H    5.473378   5.407942   6.018960   5.612435   3.984829
                   11         12         13         14         15
    11  C    0.000000
    12  C    1.393036   0.000000
    13  C    2.402379   1.391431   0.000000
    14  N    5.083221   4.205776   3.060687   0.000000
    15  C    6.272387   5.297882   4.203690   1.292180   0.000000
    16  O    6.720189   5.726267   4.872669   2.287800   1.343443
    17  C    7.338688   6.352362   5.113607   2.350614   1.450602
    18  N    8.750601   7.720183   6.490696   3.768120   2.708466
    19  N    8.485207   7.577775   6.210329   4.006006   3.550756
    20  C    7.275629   6.375365   5.022672   2.712645   2.409953
    21  N    6.141619   5.372890   3.988810   2.343498   2.759821
    22  N    4.199928   3.717771   2.443553   2.496435   3.644500
    23  C    2.798354   2.432976   1.401064   3.024280   4.293878
    24  C    2.422562   2.797966   2.406343   4.201667   5.492672
    25  H   10.319006   9.316054   8.000087   5.527874   4.665498
    26  H    5.270740   4.523641   4.031500   2.423993   2.583499
    27  H    4.937849   3.818575   3.272059   2.292535   2.450710
    28  H    7.598336   6.609814   6.206531   4.426324   3.748379
    29  H    5.471377   4.866348   5.008943   4.514422   4.700616
    30  H    6.931558   6.332606   6.209875   4.843128   4.664115
    31  H    7.489102   6.984215   7.320106   6.818018   6.780689
    32  H    8.382267   7.646340   7.720487   6.662047   6.299411
    33  H    6.627706   5.894348   6.404750   6.612754   6.688046
    34  H    8.343886   7.569297   7.956040   7.714532   7.532971
    35  H    7.703944   6.619745   6.819458   6.704732   6.467352
    36  H    8.507407   7.444129   7.431373   6.595556   6.095859
    37  H    7.111054   5.867557   5.545417   4.626084   4.142962
    38  H    5.647407   4.489404   4.495361   4.400385   4.400844
    39  H    2.162305   3.403383   3.857398   6.049548   7.326406
    40  H    2.159110   1.082241   2.145459   4.666391   5.593592
    41  H    3.372961   2.131689   1.077110   2.648669   3.584201
    42  H    8.929548   8.089525   6.702216   4.777905   4.484638
    43  H    4.789801   4.416650   3.188547   3.357241   4.380264
    44  H    3.397998   3.875980   3.386458   4.675615   5.934083
    45  S    1.787112   2.758791   4.050580   6.655275   7.770011
    46  O    2.634244   3.348862   4.634938   7.524150   8.628139
    47  O    2.629415   3.861149   4.979297   7.289678   8.437691
    48  H    3.144301   3.086850   4.406544   6.684967   7.541158
    49  N    2.814434   3.145859   4.468903   6.675367   7.606804
    50  H    2.877065   3.081228   4.238014   6.051151   6.933342
                   16         17         18         19         20
    16  O    0.000000
    17  C    2.440682   0.000000
    18  N    3.257394   1.434634   0.000000
    19  N    4.642198   2.201574   2.129997   0.000000
    20  C    3.640958   1.339404   2.139580   1.299752   0.000000
    21  N    4.102861   2.391093   3.516628   2.439895   1.424205
    22  N    4.782399   4.053239   5.401728   4.573636   3.484819
    23  C    5.189424   5.029516   6.434983   5.841290   4.687394
    24  C    6.317534   6.260908   7.670505   6.993111   5.874191
    25  H    5.342341   3.237133   2.086851   2.089299   3.112134
    26  H    2.073234   4.016314   5.140737   6.088761   4.877062
    27  H    2.184728   3.767638   4.890740   5.735516   4.554118
    28  H    2.443683   4.777769   5.261706   6.943455   6.027610
    29  H    3.903908   6.127593   7.147050   8.241396   7.036864
    30  H    3.598197   5.961970   6.753838   8.136257   7.041051
    31  H    5.721411   8.126540   8.926635  10.311003   9.183256
    32  H    5.059340   7.486002   8.045866   9.679478   8.680468
    33  H    5.815286   7.997167   8.858251  10.064503   8.939053
    34  H    6.451755   8.743876   9.386577  10.862614   9.832655
    35  H    5.591974   7.492026   8.077025   9.413717   8.481277
    36  H    4.976445   7.063979   7.466535   9.091563   8.224505
    37  H    3.344613   5.013260   5.541479   6.914612   6.044125
    38  H    3.782414   5.569101   6.447178   7.498243   6.428069
    39  H    7.937790   8.259112   9.687596   9.126538   7.981354
    40  H    5.836738   6.692588   7.989965   8.041995   6.856799
    41  H    4.237571   4.434505   5.739727   5.605009   4.449263
    42  H    5.631140   3.195410   3.098173   1.022400   2.105842
    43  H    5.607074   4.510187   5.741669   4.543112   3.663880
    44  H    6.847573   6.557671   7.925117   7.062772   6.032280
    45  S    8.017887   8.936709  10.331698  10.208714   8.981891
    46  O    8.945586   9.699062  11.064639  10.817087   9.652870
    47  O    8.672037   9.629698  11.048499  10.904308   9.661954
    48  H    7.487370   8.792520  10.070179  10.329288   9.104826
    49  N    7.572188   8.899675  10.227149  10.449576   9.190486
    50  H    6.812291   8.282682   9.599866   9.945001   8.663668
                   21         22         23         24         25
    21  N    0.000000
    22  N    2.134046   0.000000
    23  C    3.427136   1.405228   0.000000
    24  C    4.553570   2.421608   1.392149   0.000000
    25  H    4.458595   6.578412   7.787057   8.981953   0.000000
    26  H    4.749326   4.478614   4.394498   5.222027   7.176483
    27  H    4.420942   4.243253   4.070596   5.172446   6.857366
    28  H    6.471389   6.835825   6.872764   7.878695   7.286222
    29  H    6.850787   6.240217   5.721202   6.301389   9.221936
    30  H    7.127835   6.912568   6.700154   7.335468   8.822877
    31  H    9.157844   8.650334   8.102524   8.598698  11.006549
    32  H    8.920332   8.822717   8.509650   9.232289  10.073665
    33  H    8.817672   8.224975   7.513083   8.137327  10.874159
    34  H    9.926341   9.599351   9.029485   9.727972  11.377630
    35  H    8.625327   8.509332   8.036925   8.974667   9.919503
    36  H    8.584922   8.740328   8.474567   9.458026   9.342220
    37  H    6.372061   6.677299   6.561850   7.720323   7.383769
    38  H    6.375666   6.106722   5.650338   6.634030   8.369043
    39  H    6.688502   4.561328   3.392107   2.144814  11.093108
    40  H    6.004519   4.584138   3.408241   3.880107   9.645798
    41  H    3.632578   2.676232   2.150323   3.383757   7.267907
    42  H    2.836760   4.881784   6.207490   7.275693   2.452915
    43  H    2.240809   1.010389   2.075690   2.776573   6.621768
    44  H    4.672684   2.646773   2.144042   1.078025   9.088705
    45  S    7.898952   5.982237   4.583631   4.069173  11.984850
    46  O    8.540934   6.656780   5.265062   4.813719  12.613423
    47  O    8.538401   6.531429   5.191589   4.364637  12.715114
    48  H    8.286841   6.748777   5.460550   5.494982  11.855648
    49  N    8.308743   6.636492   5.315081   5.137218  12.037290
    50  H    7.854440   6.270895   5.036030   4.941066  11.474292
                   26         27         28         29         30
    26  H    0.000000
    27  H    1.765389   0.000000
    28  H    2.833574   2.958199   0.000000
    29  H    2.260090   2.877506   3.045573   0.000000
    30  H    2.463627   3.619822   2.419370   1.744991   0.000000
    31  H    4.472293   5.030005   3.910104   2.411013   2.522842
    32  H    4.446797   4.865757   2.805724   2.998321   2.413728
    33  H    4.755698   4.419240   4.197160   2.826309   3.920541
    34  H    5.737885   5.528343   4.324337   3.892381   4.321549
    35  H    5.399325   4.448491   3.945250   4.294801   5.018121
    36  H    5.060570   4.504570   2.852340   4.124399   4.212022
    37  H    3.865081   2.680916   2.459151   3.939993   4.336958
    38  H    3.348969   2.126392   3.075998   2.890575   3.952630
    39  H    6.449131   6.528975   9.095846   6.904113   8.130584
    40  H    4.683223   3.736995   6.373499   4.650785   6.237679
    41  H    3.785920   2.646293   5.592552   4.887460   5.993658
    42  H    6.974683   6.608291   7.954022   9.141593   9.088140
    43  H    5.460550   5.184818   7.753313   7.250557   7.898037
    44  H    5.839698   5.971467   8.566632   7.076476   7.955960
    45  S    6.372956   6.091128   8.466000   5.953591   7.554214
    46  O    7.477745   6.918604   9.406756   7.075993   8.739165
    47  O    6.862642   6.929780   9.132387   6.412367   7.875319
    48  H    5.964913   5.368035   7.372188   4.993491   6.733625
    49  N    5.861660   5.560639   7.538995   4.900080   6.589057
    50  H    5.001637   4.905242   6.727489   3.971650   5.624929
                   31         32         33         34         35
    31  H    0.000000
    32  H    1.740122   0.000000
    33  H    2.452210   3.025006   0.000000
    34  H    2.518297   2.419457   1.746709   0.000000
    35  H    4.306124   3.813794   2.455700   2.519992   0.000000
    36  H    3.842745   2.707054   3.039480   2.437479   1.723331
    37  H    4.999885   4.180948   3.908449   4.329721   2.543064
    38  H    4.254521   4.078247   2.790449   3.868706   2.416590
    39  H    8.914522   9.897628   8.464426  10.143644   9.721290
    40  H    6.573115   7.225704   5.170406   6.854624   5.806206
    41  H    7.167113   7.341982   6.128924   7.568421   6.183931
    42  H   11.263776  10.678101  10.975662  11.826833  10.329540
    43  H    9.660684   9.813845   9.197074  10.577859   9.401670
    44  H    9.371282   9.987955   9.084678  10.640420   9.945190
    45  S    7.545663   8.706644   6.584286   8.318783   7.977130
    46  O    8.607423   9.707104   7.318130   9.047540   8.456595
    47  O    7.884650   9.193202   7.323856   9.003670   8.990321
    48  H    6.209529   7.302338   4.729845   6.439469   6.037785
    49  N    6.151759   7.388386   5.061667   6.769885   6.649824
    50  H    5.301375   6.551971   4.484167   6.178639   6.225520
                   36         37         38         39         40
    36  H    0.000000
    37  H    2.432291   0.000000
    38  H    3.000580   1.741085   0.000000
    39  H   10.366922   8.962102   7.584861   0.000000
    40  H    6.805006   5.360721   3.877352   4.307716   0.000000
    41  H    6.762058   4.700330   3.869673   4.934332   2.449241
    42  H   10.071238   7.850738   8.380346   9.418813   8.615430
    43  H    9.658199   7.520788   7.017699   4.876558   5.308411
    44  H   10.334116   8.575130   7.577007   2.462286   4.958131
    45  S    8.948337   7.940526   6.294459   2.914257   2.905862
    46  O    9.626138   8.541451   6.926586   3.699161   3.301290
    47  O    9.813227   8.944708   7.301356   2.667240   4.198953
    48  H    7.215417   6.531565   4.815997   4.985926   2.408459
    49  N    7.658744   7.017284   5.288051   4.365065   2.792508
    50  H    7.049004   6.467615   4.757874   4.395370   2.825659
                   41         42         43         44         45
    41  H    0.000000
    42  H    6.169661   0.000000
    43  H    3.425890   4.635980   0.000000
    44  H    4.279495   7.237544   2.715368   0.000000
    45  S    4.888293  10.687031   6.566970   4.914391   0.000000
    46  O    5.384115  11.230707   7.115842   5.649792   1.460062
    47  O    5.914468  11.364205   7.086337   4.978013   1.465257
    48  H    4.810440  10.951377   7.492675   6.504820   2.293799
    49  N    5.044935  11.061204   7.386689   6.074191   1.710897
    50  H    4.772336  10.607687   7.101435   5.858234   2.275847
                   46         47         48         49         50
    46  O    0.000000
    47  O    2.542794   0.000000
    48  H    2.636307   3.438042   0.000000
    49  N    2.542448   2.548490   1.042732   0.000000
    50  H    3.396655   2.842252   1.695196   1.017797   0.000000
 Stoichiometry    C18H22N6O3S
 Framework group  C1[X(C18H22N6O3S)]
 Deg. of freedom   144
 Full point group                 C1      NOp   1
 Largest Abelian subgroup         C1      NOp   1
 Largest concise Abelian subgroup C1      NOp   1
                         Standard orientation:                         
 ---------------------------------------------------------------------
 Center     Atomic      Atomic             Coordinates (Angstroms)
 Number     Number       Type             X           Y           Z
 ---------------------------------------------------------------------
      1          6           0        1.703207   -2.205080   -0.231997
      2          6           0        6.026344   -1.597958    0.488085
      3          6           0        1.435102    1.610035   -0.508430
      4          6           0        1.330732    3.146373   -0.341791
      5          6           0        0.306666    3.639812   -1.384788
      6          6           0       -0.196022    5.070889   -1.129312
      7          6           0       -0.644423    5.372326    0.308047
      8          6           0        0.404804    4.906489    1.342679
      9          6           0        0.908559    3.464156    1.127862
     10          6           0       -2.968593   -2.670473   -0.696605
     11          6           0       -3.232187   -1.553299    0.105109
     12          6           0       -2.217189   -0.994326    0.878334
     13          6           0       -0.928507   -1.510782    0.785311
     14          7           0        1.755102   -0.767014   -0.484672
     15          6           0        2.843709   -0.077047   -0.391887
     16          8           0        2.833402    1.245761   -0.626216
     17          6           0        4.064117   -0.780070   -0.044595
     18          7           0        5.455890   -0.511571    0.176877
     19          7           0        5.179124   -2.598677    0.499791
     20          6           0        4.022495   -2.100022    0.178999
     21          7           0        2.782655   -2.794582    0.085491
     22          7           0        0.688605   -3.013242   -0.262789
     23          6           0       -0.633707   -2.576042   -0.075674
     24          6           0       -1.671233   -3.180969   -0.779720
     25          1           0        7.068154   -1.728849    0.700125
     26          1           0        0.922473    1.304758   -1.428194
     27          1           0        0.871147    1.184105    0.332320
     28          1           0        2.288250    3.626612   -0.549112
     29          1           0       -0.575552    2.996130   -1.371696
     30          1           0        0.721710    3.563236   -2.391742
     31          1           0       -0.992415    5.326506   -1.828373
     32          1           0        0.630064    5.741336   -1.355613
     33          1           0       -1.584855    4.854027    0.503817
     34          1           0       -0.850054    6.436818    0.427455
     35          1           0        0.024460    5.058602    2.347378
     36          1           0        1.267490    5.572162    1.269880
     37          1           0        1.727814    3.246875    1.815023
     38          1           0        0.082474    2.820595    1.437506
     39          1           0       -3.756819   -3.130655   -1.277740
     40          1           0       -2.411412   -0.147075    1.523073
     41          1           0       -0.138216   -1.041722    1.347084
     42          1           0        5.448282   -3.570529    0.668193
     43          1           0        0.890703   -3.984821   -0.072851
     44          1           0       -1.466657   -4.023850   -1.419906
     45         16           0       -4.870510   -0.840180    0.138703
     46          8           0       -5.518013   -1.254798    1.379918
     47          8           0       -5.495180   -1.111223   -1.158717
     48          1           0       -4.424321    1.137971    1.210780
     49          7           0       -4.679084    0.856986    0.239475
     50          1           0       -3.975508    1.175355   -0.423496
 ---------------------------------------------------------------------
 Rotational constants (GHZ):           0.1761241           0.1040562           0.0694235
 Leave Link  202 at Thu Jan 30 14:40:10 2025, MaxMem=   104857600 cpu:               0.0 elap:               0.0
 (Enter /home/pb777/GAUSSIAN/g16/l301.exe)
 Standard basis: 6-31G(d) (6D, 7F)
 Ernie: Thresh=  0.10000D-02 Tol=  0.10000D-05 Strict=F.
 There are   468 symmetry adapted cartesian basis functions of A   symmetry.
 There are   468 symmetry adapted basis functions of A   symmetry.
   468 basis functions,   896 primitive gaussians,   468 cartesian basis functions
   106 alpha electrons      106 beta electrons
       nuclear repulsion energy      2758.1922504205 Hartrees.
 IExCor=    0 DFT=F Ex=HF Corr=None ExCW=0 ScaHFX=  1.000000
 ScaDFX=  1.000000  1.000000  1.000000  1.000000 ScalE2=  1.000000  1.000000
 IRadAn=      5 IRanWt=     -1 IRanGd=            0 ICorTp=0 IEmpDi=  4
 NAtoms=   50 NActive=   50 NUniq=   50 SFac= 1.00D+00 NAtFMM=   60 NAOKFM=F Big=F
 Integral buffers will be    131072 words long.
 Raffenetti 1 integral format.
 Two-electron integral symmetry is turned on.
 Leave Link  301 at Thu Jan 30 14:40:10 2025, MaxMem=   104857600 cpu:               0.0 elap:               0.0
 (Enter /home/pb777/GAUSSIAN/g16/l302.exe)
 NPDir=0 NMtPBC=     1 NCelOv=     1 NCel=       1 NClECP=     1 NCelD=      1
         NCelK=      1 NCelE2=     1 NClLst=     1 CellRange=     0.0.
 One-electron integrals computed using PRISM.
 One-electron integral symmetry used in STVInt
 NBasis=   468 RedAO= T EigKep=  4.37D-04  NBF=   468
 NBsUse=   468 1.00D-06 EigRej= -1.00D+00 NBFU=   468
 Leave Link  302 at Thu Jan 30 14:40:11 2025, MaxMem=   104857600 cpu:               0.2 elap:               0.2
 (Enter /home/pb777/GAUSSIAN/g16/l303.exe)
 DipDrv:  MaxL=1.
 Leave Link  303 at Thu Jan 30 14:40:11 2025, MaxMem=   104857600 cpu:               0.1 elap:               0.0
 (Enter /home/pb777/GAUSSIAN/g16/l401.exe)
 ExpMin= 1.17D-01 ExpMax= 2.19D+04 ExpMxC= 3.30D+03 IAcc=3 IRadAn=         5 AccDes= 0.00D+00
 Harris functional with IExCor=  205 and IRadAn=       5 diagonalized for initial guess.
 HarFok:  IExCor=  205 AccDes= 0.00D+00 IRadAn=         5 IDoV= 1 UseB2=F ITyADJ=14
 ICtDFT=  3500011 ScaDFX=  1.000000  1.000000  1.000000  1.000000
 FoFCou: FMM=F IPFlag=           0 FMFlag=      100000 FMFlg1=           0
         NFxFlg=           0 DoJE=T BraDBF=F KetDBF=T FulRan=T
         wScrn=  0.000000 ICntrl=       500 IOpCl=  0 I1Cent=   200000004 NGrid=           0
         NMat0=    1 NMatS0=      1 NMatT0=    0 NMatD0=    1 NMtDS0=    0 NMtDT0=    0
 Petite list used in FoFCou.
 Harris En= -1644.27743899234    
 JPrj=0 DoOrth=F DoCkMO=F.
 Leave Link  401 at Thu Jan 30 14:40:19 2025, MaxMem=   104857600 cpu:               8.6 elap:               8.6
 (Enter /home/pb777/GAUSSIAN/g16/l502.exe)
 Integral symmetry usage will be decided dynamically.
 Closed shell SCF:
 Using DIIS extrapolation, IDIIS=  1040.
 NGot=   104857600 LenX=   104411589 LenY=   104192097
 Requested convergence on RMS density matrix=1.00D-08 within 128 cycles.
 Requested convergence on MAX density matrix=1.00D-06.
 Requested convergence on             energy=1.00D-06.
 No special actions if energy rises.
 Fock matrices will be formed incrementally for  20 cycles.
 Integral accuracy reduced to 1.0D-05 until final iterations.

 Cycle   1  Pass 0  IDiag  1:
 FoFJK:  IHMeth= 1 ICntrl=       0 DoSepK=F KAlg= 0 I1Cent=           0 FoldK=F
 IRaf= 680000000 NMat=       1 IRICut=       1 DoRegI=T DoRafI=F ISym2E= 0 IDoP0=0 IntGTp=1.
 FoFCou: FMM=F IPFlag=           0 FMFlag=      100000 FMFlg1=           0
         NFxFlg=           0 DoJE=F BraDBF=F KetDBF=F FulRan=T
         wScrn=  0.000000 ICntrl=         0 IOpCl=  0 I1Cent=           0 NGrid=           0
         NMat0=    1 NMatS0=      1 NMatT0=    0 NMatD0=    1 NMtDS0=    0 NMtDT0=    0
 Symmetry not used in FoFCou.
 E= -1641.94489408239    
 DIIS: error= 6.52D-02 at cycle   1 NSaved=   1.
 NSaved= 1 IEnMin= 1 EnMin= -1641.94489408239     IErMin= 1 ErrMin= 6.52D-02
 ErrMax= 6.52D-02  0.00D+00 EMaxC= 1.00D-01 BMatC= 2.00D+00 BMatP= 2.00D+00
 IDIUse=3 WtCom= 3.48D-01 WtEn= 6.52D-01
 Coeff-Com:  0.100D+01
 Coeff-En:   0.100D+01
 Coeff:      0.100D+01
 Gap=     0.454 Goal=   None    Shift=    0.000
 GapD=    0.454 DampG=2.000 DampE=0.500 DampFc=1.0000 IDamp=-1.
 RMSDP=3.58D-03 MaxDP=1.89D-01              OVMax= 1.24D-01

 Cycle   2  Pass 0  IDiag  1:
 RMSU=  3.52D-03    CP:  9.61D-01
 E= -1642.84639217952     Delta-E=       -0.901498097122 Rises=F Damp=F
 DIIS: error= 1.71D-02 at cycle   2 NSaved=   2.
 NSaved= 2 IEnMin= 2 EnMin= -1642.84639217952     IErMin= 2 ErrMin= 1.71D-02
 ErrMax= 1.71D-02  0.00D+00 EMaxC= 1.00D-01 BMatC= 2.88D-01 BMatP= 2.00D+00
 IDIUse=3 WtCom= 8.29D-01 WtEn= 1.71D-01
 Coeff-Com:  0.205D+00 0.795D+00
 Coeff-En:   0.000D+00 0.100D+01
 Coeff:      0.170D+00 0.830D+00
 Gap=     0.411 Goal=   None    Shift=    0.000
 RMSDP=1.44D-03 MaxDP=1.77D-01 DE=-9.01D-01 OVMax= 6.03D-02

 Cycle   3  Pass 0  IDiag  1:
 RMSU=  1.19D-03    CP:  9.63D-01  7.67D-01
 E= -1643.04617035614     Delta-E=       -0.199778176622 Rises=F Damp=F
 DIIS: error= 7.17D-03 at cycle   3 NSaved=   3.
 NSaved= 3 IEnMin= 3 EnMin= -1643.04617035614     IErMin= 3 ErrMin= 7.17D-03
 ErrMax= 7.17D-03  0.00D+00 EMaxC= 1.00D-01 BMatC= 4.25D-02 BMatP= 2.88D-01
 IDIUse=3 WtCom= 9.28D-01 WtEn= 7.17D-02
 Coeff-Com: -0.198D-01 0.251D+00 0.769D+00
 Coeff-En:   0.000D+00 0.000D+00 0.100D+01
 Coeff:     -0.184D-01 0.233D+00 0.785D+00
 Gap=     0.390 Goal=   None    Shift=    0.000
 RMSDP=4.19D-04 MaxDP=5.35D-02 DE=-2.00D-01 OVMax= 2.99D-02

 Cycle   4  Pass 0  IDiag  1:
 RMSU=  2.55D-04    CP:  9.63D-01  8.42D-01  8.28D-01
 E= -1643.07875396956     Delta-E=       -0.032583613422 Rises=F Damp=F
 DIIS: error= 1.56D-03 at cycle   4 NSaved=   4.
 NSaved= 4 IEnMin= 4 EnMin= -1643.07875396956     IErMin= 4 ErrMin= 1.56D-03
 ErrMax= 1.56D-03  0.00D+00 EMaxC= 1.00D-01 BMatC= 1.83D-03 BMatP= 4.25D-02
 IDIUse=3 WtCom= 9.84D-01 WtEn= 1.56D-02
 Coeff-Com: -0.106D-01 0.461D-01 0.243D+00 0.721D+00
 Coeff-En:   0.000D+00 0.000D+00 0.000D+00 0.100D+01
 Coeff:     -0.104D-01 0.454D-01 0.239D+00 0.726D+00
 Gap=     0.394 Goal=   None    Shift=    0.000
 RMSDP=1.01D-04 MaxDP=7.90D-03 DE=-3.26D-02 OVMax= 7.04D-03

 Cycle   5  Pass 0  IDiag  1:
 RMSU=  7.18D-05    CP:  9.62D-01  8.42D-01  8.76D-01  8.38D-01
 E= -1643.08043559977     Delta-E=       -0.001681630210 Rises=F Damp=F
 DIIS: error= 3.42D-04 at cycle   5 NSaved=   5.
 NSaved= 5 IEnMin= 5 EnMin= -1643.08043559977     IErMin= 5 ErrMin= 3.42D-04
 ErrMax= 3.42D-04  0.00D+00 EMaxC= 1.00D-01 BMatC= 1.16D-04 BMatP= 1.83D-03
 IDIUse=3 WtCom= 9.97D-01 WtEn= 3.42D-03
 Coeff-Com:  0.801D-03-0.171D-01-0.496D-01 0.798D-01 0.986D+00
 Coeff-En:   0.000D+00 0.000D+00 0.000D+00 0.000D+00 0.100D+01
 Coeff:      0.799D-03-0.171D-01-0.494D-01 0.795D-01 0.986D+00
 Gap=     0.394 Goal=   None    Shift=    0.000
 RMSDP=4.11D-05 MaxDP=1.76D-03 DE=-1.68D-03 OVMax= 3.67D-03

 Cycle   6  Pass 0  IDiag  1:
 RMSU=  2.59D-05    CP:  9.62D-01  8.43D-01  8.89D-01  9.43D-01  1.10D+00
 E= -1643.08063149724     Delta-E=       -0.000195897467 Rises=F Damp=F
 DIIS: error= 1.32D-04 at cycle   6 NSaved=   6.
 NSaved= 6 IEnMin= 6 EnMin= -1643.08063149724     IErMin= 6 ErrMin= 1.32D-04
 ErrMax= 1.32D-04  0.00D+00 EMaxC= 1.00D-01 BMatC= 1.43D-05 BMatP= 1.16D-04
 IDIUse=3 WtCom= 9.99D-01 WtEn= 1.32D-03
 Coeff-Com:  0.127D-02-0.853D-02-0.371D-01-0.669D-01 0.169D+00 0.943D+00
 Coeff-En:   0.000D+00 0.000D+00 0.000D+00 0.000D+00 0.000D+00 0.100D+01
 Coeff:      0.127D-02-0.852D-02-0.371D-01-0.668D-01 0.168D+00 0.943D+00
 Gap=     0.394 Goal=   None    Shift=    0.000
 RMSDP=1.61D-05 MaxDP=9.99D-04 DE=-1.96D-04 OVMax= 1.50D-03

 Cycle   7  Pass 0  IDiag  1:
 RMSU=  9.09D-06    CP:  9.62D-01  8.43D-01  8.93D-01  9.66D-01  1.25D+00
                    CP:  1.07D+00
 E= -1643.08066429264     Delta-E=       -0.000032795406 Rises=F Damp=F
 DIIS: error= 4.49D-05 at cycle   7 NSaved=   7.
 NSaved= 7 IEnMin= 7 EnMin= -1643.08066429264     IErMin= 7 ErrMin= 4.49D-05
 ErrMax= 4.49D-05  0.00D+00 EMaxC= 1.00D-01 BMatC= 2.26D-06 BMatP= 1.43D-05
 IDIUse=1 WtCom= 1.00D+00 WtEn= 0.00D+00
 Coeff-Com:  0.976D-04 0.734D-03 0.292D-03-0.206D-01-0.971D-01 0.147D+00
 Coeff-Com:  0.969D+00
 Coeff:      0.976D-04 0.734D-03 0.292D-03-0.206D-01-0.971D-01 0.147D+00
 Coeff:      0.969D+00
 Gap=     0.395 Goal=   None    Shift=    0.000
 RMSDP=6.62D-06 MaxDP=2.68D-04 DE=-3.28D-05 OVMax= 7.86D-04

 Initial convergence to 1.0D-05 achieved.  Increase integral accuracy.
 Cycle   8  Pass 1  IDiag  1:
 E= -1643.08067018981     Delta-E=       -0.000005897165 Rises=F Damp=F
 DIIS: error= 6.97D-05 at cycle   1 NSaved=   1.
 NSaved= 1 IEnMin= 1 EnMin= -1643.08067018981     IErMin= 1 ErrMin= 6.97D-05
 ErrMax= 6.97D-05  0.00D+00 EMaxC= 1.00D-01 BMatC= 1.66D-06 BMatP= 1.66D-06
 IDIUse=1 WtCom= 1.00D+00 WtEn= 0.00D+00
 Coeff-Com:  0.100D+01
 Coeff:      0.100D+01
 Gap=     0.395 Goal=   None    Shift=    0.000
 RMSDP=6.62D-06 MaxDP=2.68D-04 DE=-5.90D-06 OVMax= 3.04D-04

 Cycle   9  Pass 1  IDiag  1:
 RMSU=  2.42D-05    CP:  1.00D+00
 E= -1643.08067198697     Delta-E=       -0.000001797160 Rises=F Damp=F
 DIIS: error= 1.60D-05 at cycle   2 NSaved=   2.
 NSaved= 2 IEnMin= 2 EnMin= -1643.08067198697     IErMin= 2 ErrMin= 1.60D-05
 ErrMax= 1.60D-05  0.00D+00 EMaxC= 1.00D-01 BMatC= 1.58D-07 BMatP= 1.66D-06
 IDIUse=1 WtCom= 1.00D+00 WtEn= 0.00D+00
 Coeff-Com:  0.510D-01 0.949D+00
 Coeff:      0.510D-01 0.949D+00
 Gap=     0.395 Goal=   None    Shift=    0.000
 RMSDP=1.86D-06 MaxDP=7.33D-05 DE=-1.80D-06 OVMax= 2.18D-04

 Cycle  10  Pass 1  IDiag  1:
 RMSU=  1.54D-06    CP:  1.00D+00  1.04D+00
 E= -1643.08067228539     Delta-E=       -0.000000298420 Rises=F Damp=F
 DIIS: error= 1.37D-05 at cycle   3 NSaved=   3.
 NSaved= 3 IEnMin= 3 EnMin= -1643.08067228539     IErMin= 3 ErrMin= 1.37D-05
 ErrMax= 1.37D-05  0.00D+00 EMaxC= 1.00D-01 BMatC= 7.06D-08 BMatP= 1.58D-07
 IDIUse=1 WtCom= 1.00D+00 WtEn= 0.00D+00
 Coeff-Com: -0.569D-01 0.329D+00 0.728D+00
 Coeff:     -0.569D-01 0.329D+00 0.728D+00
 Gap=     0.395 Goal=   None    Shift=    0.000
 RMSDP=7.79D-07 MaxDP=3.80D-05 DE=-2.98D-07 OVMax= 1.14D-04

 Cycle  11  Pass 1  IDiag  1:
 RMSU=  7.43D-07    CP:  1.00D+00  1.05D+00  9.95D-01
 E= -1643.08067241839     Delta-E=       -0.000000132997 Rises=F Damp=F
 DIIS: error= 6.49D-06 at cycle   4 NSaved=   4.
 NSaved= 4 IEnMin= 4 EnMin= -1643.08067241839     IErMin= 4 ErrMin= 6.49D-06
 ErrMax= 6.49D-06  0.00D+00 EMaxC= 1.00D-01 BMatC= 1.42D-08 BMatP= 7.06D-08
 IDIUse=1 WtCom= 1.00D+00 WtEn= 0.00D+00
 Coeff-Com:  0.121D-01-0.450D+00-0.346D+00 0.178D+01
 Coeff:      0.121D-01-0.450D+00-0.346D+00 0.178D+01
 Gap=     0.395 Goal=   None    Shift=    0.000
 RMSDP=9.97D-07 MaxDP=5.32D-05 DE=-1.33D-07 OVMax= 1.52D-04

 Cycle  12  Pass 1  IDiag  1:
 RMSU=  2.93D-07    CP:  1.00D+00  1.06D+00  1.45D+00  1.88D+00
 E= -1643.08067249763     Delta-E=       -0.000000079245 Rises=F Damp=F
 DIIS: error= 1.80D-06 at cycle   5 NSaved=   5.
 NSaved= 5 IEnMin= 5 EnMin= -1643.08067249763     IErMin= 5 ErrMin= 1.80D-06
 ErrMax= 1.80D-06  0.00D+00 EMaxC= 1.00D-01 BMatC= 1.45D-09 BMatP= 1.42D-08
 IDIUse=1 WtCom= 1.00D+00 WtEn= 0.00D+00
 Coeff-Com:  0.913D-02-0.170D+00-0.181D+00 0.555D+00 0.787D+00
 Coeff:      0.913D-02-0.170D+00-0.181D+00 0.555D+00 0.787D+00
 Gap=     0.395 Goal=   None    Shift=    0.000
 RMSDP=1.80D-07 MaxDP=8.52D-06 DE=-7.92D-08 OVMax= 2.80D-05

 Cycle  13  Pass 1  IDiag  1:
 RMSU=  8.98D-08    CP:  1.00D+00  1.06D+00  1.50D+00  2.05D+00  1.12D+00
 E= -1643.08067250169     Delta-E=       -0.000000004058 Rises=F Damp=F
 DIIS: error= 5.79D-07 at cycle   6 NSaved=   6.
 NSaved= 6 IEnMin= 6 EnMin= -1643.08067250169     IErMin= 6 ErrMin= 5.79D-07
 ErrMax= 5.79D-07  0.00D+00 EMaxC= 1.00D-01 BMatC= 2.20D-10 BMatP= 1.45D-09
 IDIUse=1 WtCom= 1.00D+00 WtEn= 0.00D+00
 Coeff-Com: -0.378D-02 0.112D+00 0.867D-01-0.410D+00-0.129D+00 0.134D+01
 Coeff:     -0.378D-02 0.112D+00 0.867D-01-0.410D+00-0.129D+00 0.134D+01
 Gap=     0.395 Goal=   None    Shift=    0.000
 RMSDP=1.02D-07 MaxDP=3.88D-06 DE=-4.06D-09 OVMax= 1.53D-05

 Cycle  14  Pass 1  IDiag  1:
 RMSU=  5.17D-08    CP:  1.00D+00  1.06D+00  1.52D+00  2.10D+00  1.33D+00
                    CP:  1.47D+00
 E= -1643.08067250266     Delta-E=       -0.000000000972 Rises=F Damp=F
 DIIS: error= 2.41D-07 at cycle   7 NSaved=   7.
 NSaved= 7 IEnMin= 7 EnMin= -1643.08067250266     IErMin= 7 ErrMin= 2.41D-07
 ErrMax= 2.41D-07  0.00D+00 EMaxC= 1.00D-01 BMatC= 3.72D-11 BMatP= 2.20D-10
 IDIUse=1 WtCom= 1.00D+00 WtEn= 0.00D+00
 Coeff-Com: -0.262D-02 0.586D-01 0.525D-01-0.199D+00-0.171D+00 0.319D+00
 Coeff-Com:  0.942D+00
 Coeff:     -0.262D-02 0.586D-01 0.525D-01-0.199D+00-0.171D+00 0.319D+00
 Coeff:      0.942D+00
 Gap=     0.395 Goal=   None    Shift=    0.000
 RMSDP=3.60D-08 MaxDP=1.95D-06 DE=-9.72D-10 OVMax= 5.29D-06

 Cycle  15  Pass 1  IDiag  1:
 RMSU=  1.60D-08    CP:  1.00D+00  1.06D+00  1.52D+00  2.11D+00  1.39D+00
                    CP:  1.68D+00  1.34D+00
 E= -1643.08067250277     Delta-E=       -0.000000000113 Rises=F Damp=F
 DIIS: error= 7.62D-08 at cycle   8 NSaved=   8.
 NSaved= 8 IEnMin= 8 EnMin= -1643.08067250277     IErMin= 8 ErrMin= 7.62D-08
 ErrMax= 7.62D-08  0.00D+00 EMaxC= 1.00D-01 BMatC= 3.49D-12 BMatP= 3.72D-11
 IDIUse=1 WtCom= 1.00D+00 WtEn= 0.00D+00
 Coeff-Com:  0.377D-03-0.119D-01-0.995D-02 0.457D-01 0.108D-01-0.165D+00
 Coeff-Com:  0.258D-01 0.110D+01
 Coeff:      0.377D-03-0.119D-01-0.995D-02 0.457D-01 0.108D-01-0.165D+00
 Coeff:      0.258D-01 0.110D+01
 Gap=     0.395 Goal=   None    Shift=    0.000
 RMSDP=1.26D-08 MaxDP=4.39D-07 DE=-1.13D-10 OVMax= 1.78D-06

 Cycle  16  Pass 1  IDiag  1:
 RMSU=  5.63D-09    CP:  1.00D+00  1.06D+00  1.52D+00  2.11D+00  1.40D+00
                    CP:  1.72D+00  1.51D+00  1.20D+00
 E= -1643.08067250279     Delta-E=       -0.000000000020 Rises=F Damp=F
 DIIS: error= 3.55D-08 at cycle   9 NSaved=   9.
 NSaved= 9 IEnMin= 9 EnMin= -1643.08067250279     IErMin= 9 ErrMin= 3.55D-08
 ErrMax= 3.55D-08  0.00D+00 EMaxC= 1.00D-01 BMatC= 5.12D-13 BMatP= 3.49D-12
 IDIUse=1 WtCom= 1.00D+00 WtEn= 0.00D+00
 Coeff-Com:  0.304D-03-0.719D-02-0.658D-02 0.252D-01 0.187D-01-0.522D-01
 Coeff-Com: -0.102D+00 0.142D+00 0.982D+00
 Coeff:      0.304D-03-0.719D-02-0.658D-02 0.252D-01 0.187D-01-0.522D-01
 Coeff:     -0.102D+00 0.142D+00 0.982D+00
 Gap=     0.395 Goal=   None    Shift=    0.000
 RMSDP=3.70D-09 MaxDP=1.42D-07 DE=-2.00D-11 OVMax= 6.33D-07

 SCF Done:  E(RHF) =  -1643.08067250     A.U. after   16 cycles
            NFock= 16  Conv=0.37D-08     -V/T= 2.0017
 KE= 1.640247840712D+03 PE=-9.372973627089D+03 EE= 3.331452863453D+03
 Leave Link  502 at Thu Jan 30 14:42:30 2025, MaxMem=   104857600 cpu:             129.9 elap:             130.6
 (Enter /home/pb777/GAUSSIAN/g16/l801.exe)
 Range of M.O.s used for correlation:     1   468
 NBasis=   468 NAE=   106 NBE=   106 NFC=     0 NFV=     0
 NROrb=    468 NOA=   106 NOB=   106 NVA=   362 NVB=   362
 Leave Link  801 at Thu Jan 30 14:42:30 2025, MaxMem=   104857600 cpu:               0.0 elap:               0.0
 (Enter /home/pb777/GAUSSIAN/g16/l1101.exe)
 Using compressed storage, NAtomX=    50.
 Will process     51 centers per pass.
 Leave Link 1101 at Thu Jan 30 14:42:30 2025, MaxMem=   104857600 cpu:               0.4 elap:               0.5
 (Enter /home/pb777/GAUSSIAN/g16/l1102.exe)
 Symmetrizing basis deriv contribution to polar:
 IMax=3 JMax=2 DiffMx= 0.00D+00
 Leave Link 1102 at Thu Jan 30 14:42:30 2025, MaxMem=   104857600 cpu:               0.1 elap:               0.0
 (Enter /home/pb777/GAUSSIAN/g16/l1110.exe)
 Forming Gx(P) for the SCF density, NAtomX=    50.
 Integral derivatives from FoFJK, PRISM(SPDF).
 Do as many integral derivatives as possible in FoFJK.
 G2DrvN: MDV=     104853864.
 G2DrvN: will do    51 centers at a time, making    1 passes.
 Calling FoFCou, ICntrl=  3107 FMM=F I1Cent=   0 AccDes= 0.00D+00.
 FoFJK:  IHMeth= 1 ICntrl=    3107 DoSepK=F KAlg= 0 I1Cent=           0 FoldK=F
 IRaf=         0 NMat=       1 IRICut=       1 DoRegI=T DoRafI=F ISym2E= 0 IDoP0=0 IntGTp=1.
 FoFCou: FMM=F IPFlag=           0 FMFlag=      100000 FMFlg1=           0
         NFxFlg=           0 DoJE=F BraDBF=F KetDBF=F FulRan=T
[...]
 1374 Fit       0.035870
 1375 Fit       0.028182
 1376 Fit       0.008894
 1377 Fit       0.021327
 1378 Fit       0.024272
 1379 Fit       0.027139
 1380 Fit       0.015564
 1381 Fit       0.022605
 1382 Fit       0.008458
 1383 Fit       0.015661
 1384 Fit       0.014657
 1385 Fit       0.018994
 1386 Fit       0.026644
 1387 Fit       0.019122
 1388 Fit       0.019203
 1389 Fit       0.022908
 1390 Fit       0.029229
 1391 Fit       0.019223
 1392 Fit       0.021364
 1393 Fit       0.023205
 1394 Fit       0.017899
 1395 Fit      -0.032755
 1396 Fit      -0.043127
 1397 Fit      -0.034575
 1398 Fit      -0.024853
 1399 Fit      -0.021678
 1400 Fit      -0.047639
 1401 Fit      -0.047638
 1402 Fit      -0.041744
 1403 Fit      -0.040496
 1404 Fit      -0.042937
 1405 Fit      -0.037828
 1406 Fit      -0.041785
 1407 Fit      -0.038754
 1408 Fit      -0.043812
 1409 Fit      -0.038416
 1410 Fit      -0.031545
 1411 Fit      -0.030339
 1412 Fit      -0.037046
 1413 Fit      -0.042888
 1414 Fit      -0.047034
 1415 Fit      -0.021779
 1416 Fit      -0.031987
 1417 Fit      -0.039411
 1418 Fit      -0.044647
 1419 Fit      -0.047363
 1420 Fit      -0.014805
 1421 Fit      -0.027039
 1422 Fit      -0.036368
 1423 Fit      -0.042885
 1424 Fit      -0.046480
 1425 Fit      -0.048735
 1426 Fit      -0.013824
 1427 Fit      -0.030678
 1428 Fit      -0.040695
 1429 Fit      -0.045976
 1430 Fit      -0.041336
 1431 Fit      -0.033843
 1432 Fit      -0.048619
 1433 Fit      -0.044185
 1434 Fit      -0.040083
 1435 Fit      -0.033722
 1436 Fit      -0.046794
 1437 Fit      -0.046711
 1438 Fit      -0.040466
 1439 Fit      -0.035697
 1440 Fit      -0.027200
 1441 Fit      -0.043501
 1442 Fit      -0.043248
 1443 Fit      -0.034598
 1444 Fit      -0.027871
 1445 Fit      -0.035463
 1446 Fit      -0.036912
 1447 Fit      -0.023453
 1448 Fit      -0.010976
 1449 Fit      -0.018954
 1450 Fit       0.021648
 1451 Fit       0.011820
 1452 Fit      -0.004073
 1453 Fit       0.028190
 1454 Fit       0.027222
 1455 Fit       0.021487
 1456 Fit       0.011007
 1457 Fit       0.029662
 1458 Fit       0.028364
 1459 Fit       0.022271
 1460 Fit       0.030911
 1461 Fit      -0.015686
 1462 Fit      -0.031709
 1463 Fit       0.001023
 1464 Fit      -0.017098
 1465 Fit      -0.028790
 1466 Fit      -0.034542
 1467 Fit       0.026743
 1468 Fit      -0.001376
 1469 Fit      -0.015865
 1470 Fit      -0.023422
 1471 Fit      -0.025612
 1472 Fit       0.031351
 1473 Fit       0.029169
 1474 Fit       0.018628
 1475 Fit       0.004113
 1476 Fit      -0.005922
 1477 Fit      -0.007448
 1478 Fit       0.020019
 1479 Fit       0.000594
 1480 Fit       0.009558
 1481 Fit       0.023314
 1482 Fit       0.027969
 1483 Fit       0.027918
 1484 Fit       0.030721
 1485 Fit       0.016617
 1486 Fit       0.024520
 1487 Fit       0.029040
 1488 Fit       0.028993
 1489 Fit       0.022698
 1490 Fit       0.015051
 1491 Fit       0.024851
 1492 Fit      -0.000092
 1493 Fit       0.003285
 1494 Fit       0.003546
 1495 Fit      -0.002600
 1496 Fit      -0.003668
 1497 Fit       0.002945
 1498 Fit       0.007501
 1499 Fit       0.009447
 1500 Fit       0.017075
 1501 Fit      -0.002541
 1502 Fit       0.013186
 1503 Fit       0.002489
 1504 Fit       0.025325
 1505 Fit       0.015463
 1506 Fit       0.006403
 1507 Fit       0.000843
 1508 Fit       0.003247
 1509 Fit       0.002688
 1510 Fit       0.009835
 1511 Fit       0.001798
 1512 Fit       0.001426
 1513 Fit       0.002452
 1514 Fit       0.004583
 1515 Fit      -0.000098
 1516 Fit       0.000497
 1517 Fit      -0.000528
 1518 Fit      -0.000448
 1519 Fit       0.000341
 1520 Fit       0.003350
 1521 Fit       0.000517
 1522 Fit      -0.001102
 1523 Fit       0.000211
 1524 Fit      -0.003941
 1525 Fit      -0.003769
 1526 Fit      -0.005759
 1527 Fit      -0.001223
 1528 Fit      -0.003777
 1529 Fit      -0.005374
 1530 Fit      -0.014788
 1531 Fit      -0.014156
 1532 Fit      -0.013039
 1533 Fit      -0.006235
 1534 Fit      -0.000007
 1535 Fit       0.009281
 1536 Fit       0.015409
 1537 Fit       0.011390
 1538 Fit       0.019371
 1539 Fit       0.020582
 1540 Fit       0.014790
 1541 Fit      -0.015573
 1542 Fit       0.015104
 1543 Fit      -0.005586
 1544 Fit      -0.015394
 1545 Fit      -0.009769
 1546 Fit       0.005227
 1547 Fit      -0.015894
 1548 Fit      -0.014769
 1549 Fit       0.013646
 1550 Fit       0.014228
 1551 Fit       0.007941
 1552 Fit       0.021164
 1553 Fit       0.006969
 1554 Fit       0.000356
 1555 Fit      -0.007992
 1556 Fit      -0.005347
 1557 Fit      -0.010471
 1558 Fit      -0.006308
 1559 Fit       0.002655
 1560 Fit       0.006525
 1561 Fit       0.002840
 1562 Fit       0.006261
 1563 Fit       0.005119
 1564 Fit      -0.003269
 1565 Fit      -0.001502
 1566 Fit       0.002887
 1567 Fit       0.002349
 1568 Fit       0.001204
 1569 Fit      -0.005115
 1570 Fit      -0.000377
 1571 Fit      -0.008865
 1572 Fit      -0.001157
 1573 Fit       0.002755
 1574 Fit      -0.011787
 1575 Fit      -0.010250
 1576 Fit      -0.002566
 1577 Fit      -0.002396
 1578 Fit      -0.008411
 1579 Fit      -0.003147
 1580 Fit      -0.000811
 1581 Fit      -0.018142
 1582 Fit      -0.013757
 1583 Fit      -0.012807
 1584 Fit      -0.015565
 1585 Fit      -0.021031
 1586 Fit      -0.006775
 1587 Fit      -0.005275
 1588 Fit      -0.005570
 1589 Fit      -0.010484
 1590 Fit      -0.018501
 1591 Fit      -0.024203
 1592 Fit      -0.005269
 1593 Fit      -0.016172
 1594 Fit      -0.023372
 1595 Fit      -0.026534
 1596 Fit      -0.011813
 1597 Fit      -0.020302
 1598 Fit      -0.024104
 1599 Fit      -0.006594
 1600 Fit      -0.015864
 1601 Fit      -0.019647
 1602 Fit      -0.020064
 1603 Fit      -0.010839
 1604 Fit      -0.013989
 1605 Fit      -0.012407
 1606 Fit      -0.005620
 1607 Fit      -0.007462
 1608 Fit       0.006480
 1609 Fit       0.011366
 1610 Fit       0.007503
 1611 Fit       0.014469
 1612 Fit       0.020256
 1613 Fit       0.019737
 1614 Fit       0.028843
 1615 Fit       0.019092
 1616 Fit       0.010399
 1617 Fit       0.005789
 1618 Fit       0.024760
 1619 Fit       0.015420
 1620 Fit       0.009056
 1621 Fit       0.015969
 1622 Fit       0.001710
 1623 Fit       0.004609
 1624 Fit       0.002939
 1625 Fit      -0.000470
 1626 Fit      -0.000125
 1627 Fit       0.000313
 1628 Fit       0.005332
 1629 Fit       0.001293
 1630 Fit       0.006384
 1631 Fit       0.004142
 1632 Fit       0.008007
 1633 Fit       0.005645
 1634 Fit       0.011236
 1635 Fit       0.010043
 1636 Fit       0.005849
 1637 Fit       0.013480
 1638 Fit       0.002957
 1639 Fit       0.002506
 1640 Fit       0.009722
 1641 Fit       0.004030
 1642 Fit       0.004552
 1643 Fit       0.002362
 1644 Fit       0.002010
 1645 Fit       0.002655
 1646 Fit      -0.001192
 1647 Fit       0.001887
 1648 Fit       0.003790
 1649 Fit       0.012832
 1650 Fit       0.003920
 1651 Fit       0.004072
 1652 Fit       0.011781
 1653 Fit       0.007075
 1654 Fit       0.007289
 1655 Fit       0.013486
 1656 Fit      -0.005732
 1657 Fit      -0.012880
 1658 Fit      -0.006684
 1659 Fit       0.003836
 1660 Fit       0.004185
 1661 Fit      -0.013563
 1662 Fit      -0.007391
 1663 Fit      -0.002067
 1664 Fit      -0.004649
 1665 Fit       0.001233
 1666 Fit       0.006844
 1667 Fit       0.007022
 1668 Fit       0.020099
 1669 Fit       0.010637
 1670 Fit       0.006421
 1671 Fit       0.007820
 1672 Fit       0.015350
 1673 Fit       0.015584
 1674 Fit       0.010190
 1675 Fit       0.010021
 1676 Fit       0.012591
 1677 Fit       0.009110
 1678 Fit       0.017947
 1679 Fit       0.015206
 1680 Fit       0.009249
 1681 Fit       0.025694
 1682 Fit       0.023096
 1683 Fit       0.020028
 1684 Fit       0.015582
 1685 Fit       0.008439
 1686 Fit       0.032867
 1687 Fit       0.027186
 1688 Fit       0.022986
 1689 Fit       0.018335
 1690 Fit       0.011902
 1691 Fit       0.031449
 1692 Fit       0.024610
 1693 Fit       0.018585
 1694 Fit       0.017011
 1695 Fit       0.007244
 1696 Fit       0.010667
 1697 Fit       0.012813
 1698 Fit       0.013422
 1699 Fit       0.006439
 1700 Fit       0.009413
 1701 Fit       0.008895
 1702 Fit       0.004942
 1703 Fit       0.004636
 1704 Fit       0.003200
 1705 Fit       0.002151
 1706 Fit       0.007659
 1707 Fit       0.001485
 1708 Fit      -0.000590
 1709 Fit       0.006069
 1710 Fit      -0.015993
 1711 Fit      -0.004378
 1712 Fit       0.001539
 1713 Fit       0.004812
 1714 Fit      -0.001672
 1715 Fit       0.003367
 1716 Fit       0.006152
 1717 Fit       0.002116
 1718 Fit       0.006761
 1719 Fit       0.003333
 1720 Fit       0.005734
 1721 Fit       0.002559
 1722 Fit       0.002211
 1723 Fit       0.002885
 1724 Fit       0.006244
 1725 Fit       0.001182
 1726 Fit       0.001126
 1727 Fit       0.005788
 1728 Fit       0.001843
 1729 Fit       0.002697
 1730 Fit       0.005338
 1731 Fit       0.005407
 1732 Fit       0.005470
 1733 Fit       0.007374
 1734 Fit       0.015597
 1735 Fit       0.007644
 1736 Fit       0.007365
 1737 Fit       0.007671
 1738 Fit       0.008498
 1739 Fit       0.010826
 1740 Fit       0.014609
 1741 Fit       0.010077
 1742 Fit       0.009738
 1743 Fit       0.011263
 1744 Fit       0.012688
 1745 Fit       0.001111
 1746 Fit       0.001838
 1747 Fit       0.002038
 1748 Fit       0.001955
 1749 Fit       0.001606
 1750 Fit       0.001714
 1751 Fit       0.002315
 1752 Fit       0.002484
 1753 Fit       0.002089
 1754 Fit       0.001681
 1755 Fit       0.001698
 1756 Fit       0.002466
 1757 Fit       0.002762
 1758 Fit       0.002448
 1759 Fit       0.002073
 1760 Fit       0.002952
 1761 Fit       0.003376
 1762 Fit       0.003690
 1763 Fit       0.003091
 1764 Fit       0.002113
 1765 Fit       0.004630
 1766 Fit       0.004308
 1767 Fit       0.003782
 1768 Fit       0.002853
 1769 Fit       0.005169
 1770 Fit       0.004706
 1771 Fit       0.003970
 1772 Fit       0.003334
 1773 Fit       0.005889
 1774 Fit       0.005341
 1775 Fit      -0.000055
 1776 Fit       0.000824
 1777 Fit       0.000948
 1778 Fit      -0.000035
 1779 Fit       0.001636
 1780 Fit       0.002022
 1781 Fit       0.001831
 1782 Fit       0.000115
 1783 Fit       0.000911
 1784 Fit       0.002564
 1785 Fit       0.003396
 1786 Fit       0.001103
 1787 Fit       0.001691
 1788 Fit       0.000659
 1789 Fit       0.000919
 1790 Fit       0.001675
 1791 Fit       0.001619
 1792 Fit       0.000340
 1793 Fit       0.001656
 1794 Fit       0.002468
 1795 Fit       0.002481
 1796 Fit       0.001703
 1797 Fit       0.000419
 1798 Fit       0.002257
 1799 Fit       0.002779
 1800 Fit       0.002644
 1801 Fit       0.002056
 1802 Fit       0.001340
 1803 Fit       0.002633
 1804 Fit       0.002801
 1805 Fit       0.002393
 1806 Fit       0.001430
 1807 Fit       0.001365
 1808 Fit       0.001466
 1809 Fit       0.001281
 1810 Fit       0.001052
 1811 Fit       0.000999
 1812 Fit       0.000815
 1813 Fit       0.001499
 1814 Fit       0.001069
 1815 Fit       0.000666
 1816 Fit       0.000402
 1817 Fit       0.000151
 1818 Fit      -0.000008
 1819 Fit       0.000232
 1820 Fit      -0.001343
 1821 Fit      -0.001615
 1822 Fit      -0.001764
 1823 Fit      -0.001721
 1824 Fit      -0.000948
 1825 Fit       0.000443
 1826 Fit      -0.003104
 1827 Fit      -0.001001
 1828 Fit       0.000710
 1829 Fit       0.001897
 1830 Fit      -0.004050
 1831 Fit      -0.000894
 1832 Fit       0.001369
 1833 Fit       0.002885
 1834 Fit      -0.004291
 1835 Fit       0.000149
 1836 Fit       0.003001
 1837 Fit      -0.004783
 1838 Fit      -0.005335
 1839 Fit      -0.004797
 1840 Fit      -0.006811
 1841 Fit      -0.010160
 1842 Fit      -0.011724
 1843 Fit      -0.010130
 1844 Fit      -0.007233
 1845 Fit      -0.022135
 1846 Fit      -0.013578
 1847 Fit      -0.020047
 1848 Fit       0.002139
 1849 Fit       0.000696
 1850 Fit       0.002754
 1851 Fit       0.001301
 1852 Fit      -0.000691
 1853 Fit       0.004108
 1854 Fit       0.003977
 1855 Fit       0.002291
 1856 Fit      -0.000149
 1857 Fit       0.005485
 1858 Fit       0.000656
 1859 Fit      -0.006773
 1860 Fit       0.002380
 1861 Fit      -0.011814
 1862 Fit       0.000258
 1863 Fit       0.008483
 1864 Fit       0.000006
 1865 Fit       0.007724
 1866 Fit       0.014816
 1867 Fit       0.009272
 1868 Fit       0.013802
 1869 Fit       0.013484
 1870 Fit       0.014877
 1871 Fit      -0.004040
 1872 Fit       0.007157
 1873 Fit      -0.001426
 1874 Fit      -0.016768
 1875 Fit       0.011761
 1876 Fit       0.004417
 1877 Fit      -0.009549
 1878 Fit       0.013423
 1879 Fit       0.007578
 1880 Fit      -0.004536
 1881 Fit       0.014737
 1882 Fit       0.013276
 1883 Fit       0.007843
 1884 Fit       0.020302
 1885 Fit       0.027377
 1886 Fit       0.031805
 1887 Fit       0.035508
 1888 Fit       0.023093
 1889 Fit       0.030033
 1890 Fit       0.033806
 1891 Fit       0.036073
 1892 Fit       0.037647
 1893 Fit       0.026727
 1894 Fit       0.032188
 1895 Fit       0.034307
 1896 Fit       0.033785
 1897 Fit       0.021029
 1898 Fit       0.029044
 1899 Fit       0.030123
 1900 Fit       0.023960
 1901 Fit       0.015420
 1902 Fit       0.021579
 1903 Fit       0.013260
 1904 Fit       0.021581
 1905 Fit       0.023011
 1906 Fit       0.014542
 1907 Fit       0.019436
 1908 Fit       0.009468
 1909 Fit       0.013718
 1910 Fit       0.019876
 1911 Fit       0.014129
 1912 Fit       0.017099
 1913 Fit       0.021964
 1914 Fit       0.016887
 1915 Fit       0.017155
 1916 Fit       0.019989
 1917 Fit       0.024118
 1918 Fit       0.016968
 1919 Fit       0.018600
 1920 Fit       0.019768
 1921 Fit       0.016213
 1922 Fit      -0.029893
 1923 Fit      -0.038001
 1924 Fit      -0.031112
 1925 Fit      -0.023922
 1926 Fit      -0.019986
 1927 Fit      -0.041028
 1928 Fit      -0.028271
 1929 Fit      -0.020309
 1930 Fit      -0.041746
 1931 Fit      -0.023755
 1932 Fit      -0.038644
 1933 Fit      -0.039693
 1934 Fit      -0.033826
 1935 Fit      -0.034955
 1936 Fit      -0.039553
 1937 Fit      -0.036276
 1938 Fit      -0.032806
 1939 Fit      -0.037252
 1940 Fit      -0.032923
 1941 Fit      -0.027040
 1942 Fit      -0.025930
 1943 Fit      -0.031500
 1944 Fit      -0.036444
 1945 Fit      -0.040498
 1946 Fit      -0.022816
 1947 Fit      -0.029633
 1948 Fit      -0.034937
 1949 Fit      -0.038681
 1950 Fit      -0.040678
 1951 Fit      -0.018362
 1952 Fit      -0.026703
 1953 Fit      -0.033197
 1954 Fit      -0.037885
 1955 Fit      -0.040918
 1956 Fit      -0.043045
 1957 Fit      -0.006374
 1958 Fit      -0.017431
 1959 Fit      -0.027043
 1960 Fit      -0.034152
 1961 Fit      -0.038450
 1962 Fit      -0.040104
 1963 Fit      -0.036228
 1964 Fit      -0.030796
 1965 Fit      -0.043045
 1966 Fit      -0.038985
 1967 Fit      -0.035592
 1968 Fit      -0.030687
 1969 Fit      -0.023774
 1970 Fit      -0.042387
 1971 Fit      -0.041240
 1972 Fit      -0.036539
 1973 Fit      -0.033180
 1974 Fit      -0.028123
 1975 Fit      -0.019728
 1976 Fit      -0.039657
 1977 Fit      -0.038738
 1978 Fit      -0.032759
 1979 Fit      -0.028503
 1980 Fit      -0.020838
 1981 Fit      -0.035686
 1982 Fit      -0.035085
 1983 Fit      -0.026797
 1984 Fit      -0.021360
 1985 Fit      -0.027172
 1986 Fit      -0.028541
 1987 Fit      -0.016127
 1988 Fit      -0.005583
 1989 Fit       0.014715
 1990 Fit       0.004477
 1991 Fit       0.022989
 1992 Fit       0.019177
 1993 Fit       0.012090
 1994 Fit       0.001301
 1995 Fit       0.023164
 1996 Fit       0.024543
 1997 Fit       0.022003
 1998 Fit       0.016162
 1999 Fit       0.006682
 2000 Fit       0.026016
 2001 Fit       0.024256
 2002 Fit       0.019112
 2003 Fit      -0.023103
 2004 Fit      -0.007584
 2005 Fit      -0.020371
 2006 Fit      -0.028706
 2007 Fit      -0.002141
 2008 Fit      -0.014222
 2009 Fit      -0.022311
 2010 Fit      -0.026974
 2011 Fit      -0.031550
 2012 Fit      -0.017793
 2013 Fit       0.021867
 2014 Fit       0.026097
 2015 Fit       0.009789
 2016 Fit      -0.002293
 2017 Fit      -0.011346
 2018 Fit      -0.016178
 2019 Fit      -0.017694
 2020 Fit       0.026699
 2021 Fit       0.023907
 2022 Fit       0.015982
 2023 Fit       0.005622
 2024 Fit      -0.001723
 2025 Fit      -0.003087
 2026 Fit       0.017307
 2027 Fit       0.002965
 2028 Fit       0.009964
 2029 Fit       0.019804
 2030 Fit       0.023994
 2031 Fit       0.024624
 2032 Fit       0.026336
 2033 Fit       0.000466
 2034 Fit       0.014220
 2035 Fit       0.020359
 2036 Fit       0.024272
 2037 Fit       0.024243
 2038 Fit       0.019283
 2039 Fit       0.013358
 2040 Fit       0.020596
 -----------------------------------------------------------------
 Leave Link  602 at Thu Jan 30 18:03:21 2025, MaxMem=   104857600 cpu:               0.2 elap:               0.2
 (Enter /home/pb777/GAUSSIAN/g16/l9999.exe)

 Test job not archived.
 1\1\GINC-BUMBU\SP\RHF\6-31G(d)\C18H22N6O3S1\PB777\30-Jan-2025\0\\#P HF
 /6-31G* GEOM(AllCheck) Guess(Read) NoSymm Pop=mk IOp(6/33=2) GFInput G
 FPrint\\Gaussian Calculation\\0,1\C,0,1.5737836753,28.9371055841,7.058
 8926829\C,0,-1.7495607626,31.6054451492,7.9054356568\C,0,-0.3932208935
 ,26.3662104452,9.4419700553\C,0,-1.3385092418,25.6565618882,10.3917517
 23\C,0,-0.872695672,24.2143888142,10.6136245615\C,0,-1.7957237474,23.4
 682191934,11.5761350533\C,0,-1.9346393082,24.2089125988,12.9048582071\
 C,0,-2.3978872749,25.6481963747,12.6881269204\C,0,-1.4735932797,26.393
 1089166,11.726941555\C,0,5.5300926945,26.2203789419,5.8883475137\C,0,5
 .1334063955,25.0972127319,6.6136915572\C,0,3.9404280764,25.1156576558,
 7.3321698046\C,0,3.1261372365,26.2389454838,7.3213525686\N,0,0.9057052
 482,28.082009471,7.8506369314\C,0,-0.2459852834,28.4758807513,8.381896
 3532\O,0,-0.9342069663,27.6638664151,9.1692731134\C,0,-0.7459203695,29
 .7596682919,8.1123609921\N,0,-1.87423049,30.45174955,8.4972449518\N,0,
 -0.6029296726,31.7188080478,7.1494857894\C,0,0.0642825796,30.531993094
 5,7.2697128955\N,0,1.2214354098,30.1808829201,6.7175260716\N,0,2.77039
 32542,28.5410989236,6.5032541661\C,0,3.5070562774,27.3711916473,6.5833
 315458\C,0,4.7224267488,27.3428332299,5.8740356231\H,0,-2.4575870463,3
 2.4212561671,7.9767393962\H,0,-0.285838762,25.8181925239,8.4978661353\
 H,0,0.6049969217,26.4783149015,9.8840657903\H,0,-2.329076883,25.628244
 2634,9.9119505305\H,0,0.1474121185,24.2260479525,11.0277175528\H,0,-0.
 815488069,23.6823954115,9.6544194391\H,0,-1.4203802093,22.4509515593,1
 1.7416731055\H,0,-2.7883969797,23.3643877708,11.1141310006\H,0,-0.9614
 465333,24.2157633121,13.4176770376\H,0,-2.6315304944,23.6772610014,13.
 5645172246\H,0,-2.4519000061,26.1809842223,13.6453850209\H,0,-3.417987
 3873,25.6428233665,12.2767730956\H,0,-1.8359378815,27.4122085888,11.55
 27808994\H,0,-0.4743424518,26.4843734318,12.1812902869\H,0,6.479539538
 4,26.2155621275,5.361551314\H,0,3.6609151049,24.2490915676,7.924408094
 2\H,0,2.202978803,26.2611034367,7.8831574985\H,0,-0.299115309,32.51487
 62987,6.6102903869\H,0,3.1707845208,29.2771463834,5.9382071626\H,0,5.0
 366807026,28.2223603641,5.3160420995\S,0,6.1432102234,23.6377531666,6.
 6047695072\O,0,5.8227873219,22.8776082807,7.8025263152\O,0,7.495526044
 1,24.0466943952,6.2587901282\H,0,4.6784665492,22.3583411602,5.44722209
 94\N,0,5.6314143001,22.6865797714,5.3298763157\H,0,5.7832712295,23.128
 3524546,4.4291162706\\Version=ES64L-G16RevA.03\HF=-1643.1966204\RMSD=8
 .393e-09\Dipole=-2.2061635,2.2238156,-1.4676969\Quadrupole=-99.4839319
 ,185.7035185,-86.2195866,-87.207586,-40.6476104,-45.2931934\PG=C01 [X(
 C18H22N6O3S1)]\\@


 THERE ARE PEOPLE SO ADDICTED TO EXAGERATING THEY
 CAN'T TELL THE TRUTH WITHOUT LYING. -- FORTUNE COOKIE
 Job cpu time:       0 days  0 hours  2 minutes 12.8 seconds.
 Elapsed time:       0 days  0 hours  2 minutes 13.3 seconds.
 File lengths (MBytes):  RWF=    117 Int=      0 D2E=      0 Chk=     20 Scr=      1
 Normal termination of Gaussian 16 at Thu Jan 30 18:03:21 2025.
