 Entering Gaussian System, Link 0=/home/pb777/GAUSSIAN/g16/g16
 Initial command:
 /home/pb777/GAUSSIAN/g16/l1.exe "/home/pb777/GAUSSIAN/g16/scratch/Gau-21737.inp" -scrdir="/home/pb777/GAUSSIAN/g16/scratch/"
 Entering Link 1 = /home/pb777/GAUSSIAN/g16/l1.exe PID=     21738.
  
 Copyright (c) 1988,1990,1992,1993,1995,1998,2003,2009,2016,
            Gaussian, Inc.  All Rights Reserved.
  
 This is part of the Gaussian(R) 16 program.  It is based on
 the Gaussian(R) 09 system (copyright 2009, Gaussian, Inc.),
 the Gaussian(R) 03 system (copyright 2003, Gaussian, Inc.),
 the Gaussian(R) 98 system (copyright 1998, Gaussian, Inc.),
 the Gaussian(R) 94 system (copyright 1995, Gaussian, Inc.),
 the Gaussian 92(TM) system (copyright 1992, Gaussian, Inc.),
 the Gaussian 90(TM) system (copyright 1990, Gaussian, Inc.),
 the Gaussian 88(TM) system (copyright 1988, Gaussian, Inc.),
 the Gaussian 86(TM) system (copyright 1986, Carnegie Mellon
 University), and the Gaussian 82(TM) system (copyright 1983,
 Carnegie Mellon University). Gaussian is a federally registered
 trademark of Gaussian, Inc.
  
 This software contains proprietary and confidential information,
 including trade secrets, belonging to Gaussian, Inc.
  
 This software is provided under written license and may be
 used, copied, transmitted, or stored only in accord with that
 written license.
  
 The following legend is applicable only to US Government
 contracts under FAR:
  
                    RESTRICTED RIGHTS LEGEND
  
 Use, reproduction and disclosure by the US Government is
 subject to restrictions as set forth in subparagraphs (a)
 and (c) of the Commercial Computer Software - Restricted
 Rights clause in FAR 52.227-19.
  
 Gaussian, Inc.
 340 Quinnipiac St., Bldg. 40, Wallingford CT 06492
  
  
 ---------------------------------------------------------------
 Warning -- This program may not be used in any manner that
 competes with the business of Gaussian, Inc. or will provide
 assistance to any competitor of Gaussian, Inc.  The licensee
 of this program is prohibited from giving any competitor of
 Gaussian, Inc. access to this program.  By using this program,
 the user acknowledges that Gaussian, Inc. is engaged in the
 business of creating and licensing software in the field of
 computational chemistry and represents and warrants to the
 licensee that it is not a competitor of Gaussian, Inc. and that
 it will not use this program in any manner prohibited above.
 ---------------------------------------------------------------
  

 Cite this work as:
 Gaussian 16, Revision A.03,
 M. J. Frisch, G. W. Trucks, H. B. Schlegel, G. E. Scuseria, 
 M. A. Robb, J. R. Cheeseman, G. Scalmani, V. Barone, 
 G. A. Petersson, H. Nakatsuji, X. Li, M. Caricato, A. V. Marenich, 
 J. Bloino, B. G. Janesko, R. Gomperts, B. Mennucci, H. P. Hratchian, 
 J. V. Ortiz, A. F. Izmaylov, J. L. Sonnenberg, D. Williams-Young, 
 F. Ding, F. Lipparini, F. Egidi, J. Goings, B. Peng, A. Petrone, 
 T. Henderson, D. Ranasinghe, V. G. Zakrzewski, J. Gao, N. Rega, 
 G. Zheng, W. Liang, M. Hada, M. Ehara, K. Toyota, R. Fukuda, 
 J. Hasegawa, M. Ishida, T. Nakajima, Y. Honda, O. Kitao, H. Nakai, 
 T. Vreven, K. Throssell, J. A. Montgomery, Jr., J. E. Peralta, 
 F. Ogliaro, M. J. Bearpark, J. J. Heyd, E. N. Brothers, K. N. Kudin, 
 V. N. Staroverov, T. A. Keith, R. Kobayashi, J. Normand, 
 K. Raghavachari, A. P. Rendell, J. C. Burant, S. S. Iyengar, 
 J. Tomasi, M. Cossi, J. M. Millam, M. Klene, C. Adamo, R. Cammi, 
 J. W. Ochterski, R. L. Martin, K. Morokuma, O. Farkas, 
 J. B. Foresman, and D. J. Fox, Gaussian, Inc., Wallingford CT, 2016.
 
 ******************************************
 Gaussian 16:  ES64L-G16RevA.03 25-Dec-2016
                 4-Feb-2025 
 ******************************************
 %NPROC=16', f'%MEM=20480MB
 Will use up to   16 processors via shared memory.
 %chk=binder_22.antechamber.chk
 ---------------------------------------------------
 #P HF/6-31G* OPT(CalcFC) GEOM(ALLCheck) Guess(Read)
 ---------------------------------------------------
 1/10=4,18=20,19=15,29=7,38=1/1,3;
 2/9=110,12=2,40=1/2;
 3/5=1,6=6,7=1,11=9,14=-4,25=1,30=1,71=2,116=-2,140=1/1,2,3;
 4/5=1/1;
 5/5=2,38=6/2;
 8/6=4,10=90,11=11/1;
 11/6=1,8=1,9=11,15=111,16=1/1,2,10;
 10/6=1,13=1/2;
 6/7=2,8=2,9=2,10=2,28=1/1;
 7/10=1,18=20,25=1/1,2,3,16;
 1/10=4,18=20,19=15/3(2);
 2/9=110/2;
 99//99;
 2/9=110/2;
 3/5=1,6=6,7=1,11=9,14=-2,25=1,30=1,71=1/1,2,3;
 4/5=5,16=3,69=1/1;
 5/5=2,38=5/2;
 7//1,2,3,16;
 1/18=20,19=15/3(-5);
 2/9=110/2;
 6/7=2,8=2,9=2,10=2,19=2,28=1/1;
 99/9=1/99;
 Leave Link    1 at Tue Feb  4 10:09:57 2025, MaxMem=           0 cpu:               0.3 elap:               0.0
 (Enter /home/pb777/GAUSSIAN/g16/l101.exe)
 Structure from the checkpoint file:  "binder_22.antechamber.chk"
 --------------------
 Gaussian Calculation
 --------------------
 Charge =  0 Multiplicity = 1
 Redundant internal coordinates found in file.  (old form).
 C,0,1.463983904,29.2788415362,7.0435474015
 C,0,-2.2320319096,31.5201534173,7.6794823895
 C,0,-0.2787781183,26.5934843686,9.5771620073
 C,0,-1.2104825337,25.8515631414,10.5224638832
 C,0,-0.6308363724,24.4679568139,10.851044719
 C,0,-1.530923783,23.6907097331,11.8161461271
 C,0,-1.8071184598,24.4875658053,13.0935930148
 C,0,-2.3849994353,25.8676483942,12.7708290893
 C,0,-1.4833292897,26.6448079571,11.8076442526
 C,0,5.7470455857,27.0780706315,5.8953081586
 C,0,5.6201978758,25.9946030895,6.7484341655
 C,0,4.4925482609,25.9006084626,7.5468128623
 C,0,3.5050896801,26.8804195741,7.5112346084
 N,0,0.8877273574,28.3921631382,7.8750275223
 C,0,-0.3279878214,28.6516025517,8.3667653048
 O,0,-0.9240543038,27.8015248592,9.1860758083
 C,0,-0.9850322381,29.8378085377,8.0116423081
 N,0,-2.2128087371,30.4020785661,8.3313310503
 N,0,-1.0883564255,31.7433802853,6.9380658723
 C,0,-0.2769416376,30.6638555652,7.1460701475
 N,0,0.9376298207,30.4350490404,6.6366626249
 N,0,2.716459759,29.0280966846,6.5251586973
 C,0,3.6326259878,27.9697710511,6.6497306678
 C,0,4.7692300811,28.0501256277,5.842156847
 H,0,-3.0345394089,32.2306997545,7.6861561268
 H,0,-0.0694989592,26.0065463512,8.6925925356
 H,0,0.6612621249,26.8315838134,10.0575050171
 H,0,-2.1559393667,25.7113595926,10.0008831733
 H,0,0.3558244286,24.5868787837,11.2967818628
 H,0,-0.4906503782,23.8960853219,9.9367168444
 H,0,-1.0722596432,22.7363951133,12.059936308
 H,0,-2.4747208147,23.4651474301,11.3223731735
 H,0,-0.8786516385,24.6074730849,13.6497584853
 H,0,-2.4865296183,23.9361726246,13.7380036917
 H,0,-2.5263597696,26.4381849717,13.6845885742
 H,0,-3.3707683244,25.7497322639,12.3237648174
 H,0,-1.9325891724,27.6001908082,11.5619229674
 H,0,-0.53417471,26.8585859827,12.2992470942
 H,0,6.3828753981,25.2403686619,6.796814886
 S,0,4.3082816505,24.5201547617,8.6708021991
 H,0,2.6549516062,26.7975340249,8.1441935192
 H,0,-0.8832336772,32.5297994727,6.3657057317
 H,0,3.0060758171,29.7607873714,5.9174916355
 H,0,4.8853437247,28.8843278451,5.1716904598
 H,0,6.6150362585,27.1680866724,5.2668932855
 C,0,3.439126675,23.3333386759,7.6062127921
 H,0,3.2667999753,22.4432116337,8.1982264729
 H,0,2.4879239442,23.7313606072,7.2794941947
 H,0,4.0395566311,23.0741055446,6.744854622
 Recover connectivity data from disk.
 ITRead=  0  0  0  0  0  0  0  0  0  0  0  0  0  0  0  0  0  0  0  0
 ITRead=  0  0  0  0  0  0  0  0  0  0  0  0  0  0  0  0  0  0  0  0
 ITRead=  0  0  0  0  0  0  0  0  0
 MicOpt= -1 -1 -1 -1 -1 -1 -1 -1 -1 -1 -1 -1 -1 -1 -1 -1 -1 -1 -1 -1
 MicOpt= -1 -1 -1 -1 -1 -1 -1 -1 -1 -1 -1 -1 -1 -1 -1 -1 -1 -1 -1 -1
 MicOpt= -1 -1 -1 -1 -1 -1 -1 -1 -1
 NAtoms=     49 NQM=       49 NQMF=       0 NMMI=      0 NMMIF=      0
                NMic=       0 NMicF=      0.
                    Isotopes and Nuclear Properties:
 (Nuclear quadrupole moments (NQMom) in fm**2, nuclear magnetic moments (NMagM)
  in nuclear magnetons)

  Atom         1           2           3           4           5           6           7           8           9          10
 IAtWgt=          12          12          12          12          12          12          12          12          12          12
 AtmWgt=  12.0000000  12.0000000  12.0000000  12.0000000  12.0000000  12.0000000  12.0000000  12.0000000  12.0000000  12.0000000
 NucSpn=           0           0           0           0           0           0           0           0           0           0
 AtZEff=   3.6000000   3.6000000   3.6000000   3.6000000   3.6000000   3.6000000   3.6000000   3.6000000   3.6000000   3.6000000
 NQMom=    0.0000000   0.0000000   0.0000000   0.0000000   0.0000000   0.0000000   0.0000000   0.0000000   0.0000000   0.0000000
 NMagM=    0.0000000   0.0000000   0.0000000   0.0000000   0.0000000   0.0000000   0.0000000   0.0000000   0.0000000   0.0000000
 AtZNuc=   6.0000000   6.0000000   6.0000000   6.0000000   6.0000000   6.0000000   6.0000000   6.0000000   6.0000000   6.0000000

  Atom        11          12          13          14          15          16          17          18          19          20
 IAtWgt=          12          12          12          14          12          16          12          14          14          12
 AtmWgt=  12.0000000  12.0000000  12.0000000  14.0030740  12.0000000  15.9949146  12.0000000  14.0030740  14.0030740  12.0000000
 NucSpn=           0           0           0           2           0           0           0           2           2           0
 AtZEff=   3.6000000   3.6000000   3.6000000   4.5500000   3.6000000   5.6000000   3.6000000   4.5500000   4.5500000   3.6000000
 NQMom=    0.0000000   0.0000000   0.0000000   2.0440000   0.0000000   0.0000000   0.0000000   2.0440000   2.0440000   0.0000000
 NMagM=    0.0000000   0.0000000   0.0000000   0.4037610   0.0000000   0.0000000   0.0000000   0.4037610   0.4037610   0.0000000
 AtZNuc=   6.0000000   6.0000000   6.0000000   7.0000000   6.0000000   8.0000000   6.0000000   7.0000000   7.0000000   6.0000000

  Atom        21          22          23          24          25          26          27          28          29          30
 IAtWgt=          14          14          12          12           1           1           1           1           1           1
 AtmWgt=  14.0030740  14.0030740  12.0000000  12.0000000   1.0078250   1.0078250   1.0078250   1.0078250   1.0078250   1.0078250
 NucSpn=           2           2           0           0           1           1           1           1           1           1
 AtZEff=   4.5500000   4.5500000   3.6000000   3.6000000   1.0000000   1.0000000   1.0000000   1.0000000   1.0000000   1.0000000
 NQMom=    2.0440000   2.0440000   0.0000000   0.0000000   0.0000000   0.0000000   0.0000000   0.0000000   0.0000000   0.0000000
 NMagM=    0.4037610   0.4037610   0.0000000   0.0000000   2.7928460   2.7928460   2.7928460   2.7928460   2.7928460   2.7928460
 AtZNuc=   7.0000000   7.0000000   6.0000000   6.0000000   1.0000000   1.0000000   1.0000000   1.0000000   1.0000000   1.0000000

  Atom        31          32          33          34          35          36          37          38          39          40
 IAtWgt=           1           1           1           1           1           1           1           1           1          32
 AtmWgt=   1.0078250   1.0078250   1.0078250   1.0078250   1.0078250   1.0078250   1.0078250   1.0078250   1.0078250  31.9720718
 NucSpn=           1           1           1           1           1           1           1           1           1           0
 AtZEff=   1.0000000   1.0000000   1.0000000   1.0000000   1.0000000   1.0000000   1.0000000   1.0000000   1.0000000  13.6000000
 NQMom=    0.0000000   0.0000000   0.0000000   0.0000000   0.0000000   0.0000000   0.0000000   0.0000000   0.0000000   0.0000000
 NMagM=    2.7928460   2.7928460   2.7928460   2.7928460   2.7928460   2.7928460   2.7928460   2.7928460   2.7928460   0.0000000
 AtZNuc=   1.0000000   1.0000000   1.0000000   1.0000000   1.0000000   1.0000000   1.0000000   1.0000000   1.0000000  16.0000000

  Atom        41          42          43          44          45          46          47          48          49
 IAtWgt=           1           1           1           1           1          12           1           1           1
 AtmWgt=   1.0078250   1.0078250   1.0078250   1.0078250   1.0078250  12.0000000   1.0078250   1.0078250   1.0078250
 NucSpn=           1           1           1           1           1           0           1           1           1
 AtZEff=   1.0000000   1.0000000   1.0000000   1.0000000   1.0000000   3.6000000   1.0000000   1.0000000   1.0000000
 NQMom=    0.0000000   0.0000000   0.0000000   0.0000000   0.0000000   0.0000000   0.0000000   0.0000000   0.0000000
 NMagM=    2.7928460   2.7928460   2.7928460   2.7928460   2.7928460   0.0000000   2.7928460   2.7928460   2.7928460
 AtZNuc=   1.0000000   1.0000000   1.0000000   1.0000000   1.0000000   6.0000000   1.0000000   1.0000000   1.0000000
 Leave Link  101 at Tue Feb  4 10:09:57 2025, MaxMem=   104857600 cpu:               2.3 elap:               0.2
 (Enter /home/pb777/GAUSSIAN/g16/l103.exe)

 GradGradGradGradGradGradGradGradGradGradGradGradGradGradGradGradGradGrad
 Berny optimization.
 Initialization pass.
                           ----------------------------
                           !    Initial Parameters    !
                           ! (Angstroms and Degrees)  !
 --------------------------                            --------------------------
 ! Name  Definition              Value          Derivative Info.                !
 --------------------------------------------------------------------------------
 ! R1    R(1,14)                 1.3452         calculate D2E/DX2 analytically  !
 ! R2    R(1,21)                 1.3339         calculate D2E/DX2 analytically  !
 ! R3    R(1,22)                 1.3785         calculate D2E/DX2 analytically  !
 ! R4    R(2,18)                 1.2944         calculate D2E/DX2 analytically  !
 ! R5    R(2,19)                 1.3811         calculate D2E/DX2 analytically  !
 ! R6    R(2,25)                 1.0719         calculate D2E/DX2 analytically  !
 ! R7    R(3,4)                  1.5206         calculate D2E/DX2 analytically  !
 ! R8    R(3,16)                 1.4243         calculate D2E/DX2 analytically  !
 ! R9    R(3,26)                 1.082          calculate D2E/DX2 analytically  !
 ! R10   R(3,27)                 1.0822         calculate D2E/DX2 analytically  !
 ! R11   R(4,5)                  1.5357         calculate D2E/DX2 analytically  !
 ! R12   R(4,9)                  1.5347         calculate D2E/DX2 analytically  !
 ! R13   R(4,28)                 1.0888         calculate D2E/DX2 analytically  !
 ! R14   R(5,6)                  1.5316         calculate D2E/DX2 analytically  !
 ! R15   R(5,29)                 1.0892         calculate D2E/DX2 analytically  !
 ! R16   R(5,30)                 1.0875         calculate D2E/DX2 analytically  !
 ! R17   R(6,7)                  1.5307         calculate D2E/DX2 analytically  !
 ! R18   R(6,31)                 1.0865         calculate D2E/DX2 analytically  !
 ! R19   R(6,32)                 1.0888         calculate D2E/DX2 analytically  !
 ! R20   R(7,8)                  1.5306         calculate D2E/DX2 analytically  !
 ! R21   R(7,33)                 1.0889         calculate D2E/DX2 analytically  !
 ! R22   R(7,34)                 1.0867         calculate D2E/DX2 analytically  !
 ! R23   R(8,9)                  1.5312         calculate D2E/DX2 analytically  !
 ! R24   R(8,35)                 1.0865         calculate D2E/DX2 analytically  !
 ! R25   R(8,36)                 1.0888         calculate D2E/DX2 analytically  !
 ! R26   R(9,37)                 1.084          calculate D2E/DX2 analytically  !
 ! R27   R(9,38)                 1.0901         calculate D2E/DX2 analytically  !
 ! R28   R(10,11)                1.3849         calculate D2E/DX2 analytically  !
 ! R29   R(10,24)                1.3798         calculate D2E/DX2 analytically  !
 ! R30   R(10,45)                1.0754         calculate D2E/DX2 analytically  !
 ! R31   R(11,12)                1.3849         calculate D2E/DX2 analytically  !
 ! R32   R(11,39)                1.0737         calculate D2E/DX2 analytically  !
 ! R33   R(12,13)                1.3915         calculate D2E/DX2 analytically  !
 ! R34   R(12,40)                1.7897         calculate D2E/DX2 analytically  !
 ! R35   R(13,23)                1.3947         calculate D2E/DX2 analytically  !
 ! R36   R(13,41)                1.0631         calculate D2E/DX2 analytically  !
 ! R37   R(14,15)                1.3368         calculate D2E/DX2 analytically  !
 ! R38   R(15,16)                1.3226         calculate D2E/DX2 analytically  !
 ! R39   R(15,17)                1.4018         calculate D2E/DX2 analytically  !
 ! R40   R(17,18)                1.3885         calculate D2E/DX2 analytically  !
 ! R41   R(17,20)                1.3903         calculate D2E/DX2 analytically  !
 ! R42   R(19,20)                1.3664         calculate D2E/DX2 analytically  !
 ! R43   R(19,42)                0.994          calculate D2E/DX2 analytically  !
 ! R44   R(20,21)                1.3368         calculate D2E/DX2 analytically  !
 ! R45   R(22,23)                1.4053         calculate D2E/DX2 analytically  !
 ! R46   R(22,43)                0.995          calculate D2E/DX2 analytically  !
 ! R47   R(23,24)                1.3966         calculate D2E/DX2 analytically  !
 ! R48   R(24,44)                1.0765         calculate D2E/DX2 analytically  !
 ! R49   R(40,46)                1.8159         calculate D2E/DX2 analytically  !
 ! R50   R(46,47)                1.0828         calculate D2E/DX2 analytically  !
 ! R51   R(46,48)                1.0816         calculate D2E/DX2 analytically  !
 ! R52   R(46,49)                1.0815         calculate D2E/DX2 analytically  !
 ! A1    A(14,1,21)            126.2145         calculate D2E/DX2 analytically  !
 ! A2    A(14,1,22)            120.1158         calculate D2E/DX2 analytically  !
 ! A3    A(21,1,22)            113.6696         calculate D2E/DX2 analytically  !
 ! A4    A(18,2,19)            113.432          calculate D2E/DX2 analytically  !
 ! A5    A(18,2,25)            125.4924         calculate D2E/DX2 analytically  !
 ! A6    A(19,2,25)            121.0756         calculate D2E/DX2 analytically  !
 ! A7    A(4,3,16)             107.8748         calculate D2E/DX2 analytically  !
 ! A8    A(4,3,26)             111.2276         calculate D2E/DX2 analytically  !
 ! A9    A(4,3,27)             111.3257         calculate D2E/DX2 analytically  !
 ! A10   A(16,3,26)            108.8585         calculate D2E/DX2 analytically  !
 ! A11   A(16,3,27)            109.1963         calculate D2E/DX2 analytically  !
 ! A12   A(26,3,27)            108.3131         calculate D2E/DX2 analytically  !
 ! A13   A(3,4,5)              109.9588         calculate D2E/DX2 analytically  !
 ! A14   A(3,4,9)              112.1688         calculate D2E/DX2 analytically  !
 ! A15   A(3,4,28)             107.2819         calculate D2E/DX2 analytically  !
 ! A16   A(5,4,9)              110.7084         calculate D2E/DX2 analytically  !
 ! A17   A(5,4,28)             108.3141         calculate D2E/DX2 analytically  !
 ! A18   A(9,4,28)             108.2592         calculate D2E/DX2 analytically  !
 ! A19   A(4,5,6)              111.7299         calculate D2E/DX2 analytically  !
 ! A20   A(4,5,29)             109.3363         calculate D2E/DX2 analytically  !
 ! A21   A(4,5,30)             110.0319         calculate D2E/DX2 analytically  !
 ! A22   A(6,5,29)             109.2629         calculate D2E/DX2 analytically  !
 ! A23   A(6,5,30)             109.7968         calculate D2E/DX2 analytically  !
 ! A24   A(29,5,30)            106.5416         calculate D2E/DX2 analytically  !
 ! A25   A(5,6,7)              111.5757         calculate D2E/DX2 analytically  !
 ! A26   A(5,6,31)             109.8182         calculate D2E/DX2 analytically  !
 ! A27   A(5,6,32)             109.1956         calculate D2E/DX2 analytically  !
 ! A28   A(7,6,31)             110.2519         calculate D2E/DX2 analytically  !
 ! A29   A(7,6,32)             109.2633         calculate D2E/DX2 analytically  !
 ! A30   A(31,6,32)            106.6021         calculate D2E/DX2 analytically  !
 ! A31   A(6,7,8)              111.1936         calculate D2E/DX2 analytically  !
 ! A32   A(6,7,33)             109.2515         calculate D2E/DX2 analytically  !
 ! A33   A(6,7,34)             110.0932         calculate D2E/DX2 analytically  !
 ! A34   A(8,7,33)             109.2891         calculate D2E/DX2 analytically  !
 ! A35   A(8,7,34)             110.2738         calculate D2E/DX2 analytically  !
 ! A36   A(33,7,34)            106.6236         calculate D2E/DX2 analytically  !
 ! A37   A(7,8,9)              111.589          calculate D2E/DX2 analytically  !
 ! A38   A(7,8,35)             110.1972         calculate D2E/DX2 analytically  !
 ! A39   A(7,8,36)             109.3147         calculate D2E/DX2 analytically  !
 ! A40   A(9,8,35)             109.8231         calculate D2E/DX2 analytically  !
 ! A41   A(9,8,36)             109.2573         calculate D2E/DX2 analytically  !
 ! A42   A(35,8,36)            106.5228         calculate D2E/DX2 analytically  !
 ! A43   A(4,9,8)              111.6603         calculate D2E/DX2 analytically  !
 ! A44   A(4,9,37)             109.841          calculate D2E/DX2 analytically  !
 ! A45   A(4,9,38)             108.9181         calculate D2E/DX2 analytically  !
 ! A46   A(8,9,37)             110.2348         calculate D2E/DX2 analytically  !
 ! A47   A(8,9,38)             109.1827         calculate D2E/DX2 analytically  !
 ! A48   A(37,9,38)            106.8737         calculate D2E/DX2 analytically  !
 ! A49   A(11,10,24)           120.6633         calculate D2E/DX2 analytically  !
 ! A50   A(11,10,45)           119.9616         calculate D2E/DX2 analytically  !
 ! A51   A(24,10,45)           119.375          calculate D2E/DX2 analytically  !
 ! A52   A(10,11,12)           118.8708         calculate D2E/DX2 analytically  !
 ! A53   A(10,11,39)           120.8151         calculate D2E/DX2 analytically  !
 ! A54   A(12,11,39)           120.3134         calculate D2E/DX2 analytically  !
 ! A55   A(11,12,13)           121.0168         calculate D2E/DX2 analytically  !
 ! A56   A(11,12,40)           119.8848         calculate D2E/DX2 analytically  !
 ! A57   A(13,12,40)           119.0854         calculate D2E/DX2 analytically  !
 ! A58   A(12,13,23)           120.0579         calculate D2E/DX2 analytically  !
 ! A59   A(12,13,41)           119.8237         calculate D2E/DX2 analytically  !
 ! A60   A(23,13,41)           120.1182         calculate D2E/DX2 analytically  !
 ! A61   A(1,14,15)            119.2755         calculate D2E/DX2 analytically  !
 ! A62   A(14,15,16)           120.8634         calculate D2E/DX2 analytically  !
 ! A63   A(14,15,17)           119.8222         calculate D2E/DX2 analytically  !
 ! A64   A(16,15,17)           119.3144         calculate D2E/DX2 analytically  !
 ! A65   A(3,16,15)            120.7346         calculate D2E/DX2 analytically  !
 ! A66   A(15,17,18)           134.4289         calculate D2E/DX2 analytically  !
 ! A67   A(15,17,20)           114.9472         calculate D2E/DX2 analytically  !
 ! A68   A(18,17,20)           110.6237         calculate D2E/DX2 analytically  !
 ! A69   A(2,18,17)            104.3719         calculate D2E/DX2 analytically  !
 ! A70   A(2,19,20)            106.3991         calculate D2E/DX2 analytically  !
 ! A71   A(2,19,42)            127.4331         calculate D2E/DX2 analytically  !
 ! A72   A(20,19,42)           126.1675         calculate D2E/DX2 analytically  !
 ! A73   A(17,20,19)           105.1732         calculate D2E/DX2 analytically  !
 ! A74   A(17,20,21)           126.7471         calculate D2E/DX2 analytically  !
 ! A75   A(19,20,21)           128.0797         calculate D2E/DX2 analytically  !
 ! A76   A(1,21,20)            112.9934         calculate D2E/DX2 analytically  !
 ! A77   A(1,22,23)            134.1045         calculate D2E/DX2 analytically  !
 ! A78   A(1,22,43)            111.1117         calculate D2E/DX2 analytically  !
 ! A79   A(23,22,43)           114.7677         calculate D2E/DX2 analytically  !
 ! A80   A(13,23,22)           125.6868         calculate D2E/DX2 analytically  !
 ! A81   A(13,23,24)           118.4599         calculate D2E/DX2 analytically  !
 ! A82   A(22,23,24)           115.8473         calculate D2E/DX2 analytically  !
 ! A83   A(10,24,23)           120.9259         calculate D2E/DX2 analytically  !
 ! A84   A(10,24,44)           119.5688         calculate D2E/DX2 analytically  !
 ! A85   A(23,24,44)           119.5049         calculate D2E/DX2 analytically  !
 ! A86   A(12,40,46)           100.6737         calculate D2E/DX2 analytically  !
 ! A87   A(40,46,47)           107.0326         calculate D2E/DX2 analytically  !
 ! A88   A(40,46,48)           110.9473         calculate D2E/DX2 analytically  !
 ! A89   A(40,46,49)           110.9689         calculate D2E/DX2 analytically  !
 ! A90   A(47,46,48)           109.1284         calculate D2E/DX2 analytically  !
 ! A91   A(47,46,49)           109.0719         calculate D2E/DX2 analytically  !
 ! A92   A(48,46,49)           109.6248         calculate D2E/DX2 analytically  !
 ! D1    D(21,1,14,15)          -0.0462         calculate D2E/DX2 analytically  !
 ! D2    D(22,1,14,15)        -179.9256         calculate D2E/DX2 analytically  !
 ! D3    D(14,1,21,20)           0.0475         calculate D2E/DX2 analytically  !
 ! D4    D(22,1,21,20)         179.9336         calculate D2E/DX2 analytically  !
 ! D5    D(14,1,22,23)           0.6208         calculate D2E/DX2 analytically  !
 ! D6    D(14,1,22,43)         179.0385         calculate D2E/DX2 analytically  !
 ! D7    D(21,1,22,23)        -179.273          calculate D2E/DX2 analytically  !
 ! D8    D(21,1,22,43)          -0.8553         calculate D2E/DX2 analytically  !
 ! D9    D(19,2,18,17)           0.0066         calculate D2E/DX2 analytically  !
 ! D10   D(25,2,18,17)        -179.9962         calculate D2E/DX2 analytically  !
 ! D11   D(18,2,19,20)          -0.0335         calculate D2E/DX2 analytically  !
 ! D12   D(18,2,19,42)        -179.8524         calculate D2E/DX2 analytically  !
 ! D13   D(25,2,19,20)         179.9691         calculate D2E/DX2 analytically  !
 ! D14   D(25,2,19,42)           0.1502         calculate D2E/DX2 analytically  !
 ! D15   D(16,3,4,5)           173.6854         calculate D2E/DX2 analytically  !
 ! D16   D(16,3,4,9)           -62.6584         calculate D2E/DX2 analytically  !
 ! D17   D(16,3,4,28)           56.0983         calculate D2E/DX2 analytically  !
 ! D18   D(26,3,4,5)            54.3699         calculate D2E/DX2 analytically  !
 ! D19   D(26,3,4,9)           178.0262         calculate D2E/DX2 analytically  !
 ! D20   D(26,3,4,28)          -63.2171         calculate D2E/DX2 analytically  !
 ! D21   D(27,3,4,5)           -66.5272         calculate D2E/DX2 analytically  !
 ! D22   D(27,3,4,9)            57.129          calculate D2E/DX2 analytically  !
 ! D23   D(27,3,4,28)          175.8857         calculate D2E/DX2 analytically  !
 ! D24   D(4,3,16,15)          179.4716         calculate D2E/DX2 analytically  !
 ! D25   D(26,3,16,15)         -59.7196         calculate D2E/DX2 analytically  !
 ! D26   D(27,3,16,15)          58.3473         calculate D2E/DX2 analytically  !
 ! D27   D(3,4,5,6)            179.3117         calculate D2E/DX2 analytically  !
 ! D28   D(3,4,5,29)            58.2322         calculate D2E/DX2 analytically  !
 ! D29   D(3,4,5,30)           -58.4539         calculate D2E/DX2 analytically  !
 ! D30   D(9,4,5,6)             54.8077         calculate D2E/DX2 analytically  !
 ! D31   D(9,4,5,29)           -66.2717         calculate D2E/DX2 analytically  !
 ! D32   D(9,4,5,30)           177.0421         calculate D2E/DX2 analytically  !
 ! D33   D(28,4,5,6)           -63.7442         calculate D2E/DX2 analytically  !
 ! D34   D(28,4,5,29)          175.1764         calculate D2E/DX2 analytically  !
 ! D35   D(28,4,5,30)           58.4902         calculate D2E/DX2 analytically  !
 ! D36   D(3,4,9,8)           -178.1162         calculate D2E/DX2 analytically  !
 ! D37   D(3,4,9,37)            59.2727         calculate D2E/DX2 analytically  !
 ! D38   D(3,4,9,38)           -57.4625         calculate D2E/DX2 analytically  !
 ! D39   D(5,4,9,8)            -54.8804         calculate D2E/DX2 analytically  !
 ! D40   D(5,4,9,37)          -177.4916         calculate D2E/DX2 analytically  !
 ! D41   D(5,4,9,38)            65.7732         calculate D2E/DX2 analytically  !
 ! D42   D(28,4,9,8)            63.7048         calculate D2E/DX2 analytically  !
 ! D43   D(28,4,9,37)          -58.9064         calculate D2E/DX2 analytically  !
 ! D44   D(28,4,9,38)         -175.6416         calculate D2E/DX2 analytically  !
 ! D45   D(4,5,6,7)            -55.0626         calculate D2E/DX2 analytically  !
 ! D46   D(4,5,6,31)          -177.6219         calculate D2E/DX2 analytically  !
 ! D47   D(4,5,6,32)            65.823          calculate D2E/DX2 analytically  !
 ! D48   D(29,5,6,7)            66.0595         calculate D2E/DX2 analytically  !
 ! D49   D(29,5,6,31)          -56.4998         calculate D2E/DX2 analytically  !
 ! D50   D(29,5,6,32)         -173.0549         calculate D2E/DX2 analytically  !
 ! D51   D(30,5,6,7)          -177.4317         calculate D2E/DX2 analytically  !
 ! D52   D(30,5,6,31)           60.009          calculate D2E/DX2 analytically  !
 ! D53   D(30,5,6,32)          -56.5461         calculate D2E/DX2 analytically  !
 ! D54   D(5,6,7,8)             54.66           calculate D2E/DX2 analytically  !
 ! D55   D(5,6,7,33)           -66.0506         calculate D2E/DX2 analytically  !
 ! D56   D(5,6,7,34)           177.1784         calculate D2E/DX2 analytically  !
 ! D57   D(31,6,7,8)           176.9704         calculate D2E/DX2 analytically  !
 ! D58   D(31,6,7,33)           56.2598         calculate D2E/DX2 analytically  !
 ! D59   D(31,6,7,34)          -60.5112         calculate D2E/DX2 analytically  !
 ! D60   D(32,6,7,8)           -66.1861         calculate D2E/DX2 analytically  !
 ! D61   D(32,6,7,33)          173.1034         calculate D2E/DX2 analytically  !
 ! D62   D(32,6,7,34)           56.3324         calculate D2E/DX2 analytically  !
 ! D63   D(6,7,8,9)            -54.7792         calculate D2E/DX2 analytically  !
 ! D64   D(6,7,8,35)          -177.0666         calculate D2E/DX2 analytically  !
 ! D65   D(6,7,8,36)            66.1873         calculate D2E/DX2 analytically  !
 ! D66   D(33,7,8,9)            65.9092         calculate D2E/DX2 analytically  !
 ! D67   D(33,7,8,35)          -56.3782         calculate D2E/DX2 analytically  !
 ! D68   D(33,7,8,36)         -173.1243         calculate D2E/DX2 analytically  !
 ! D69   D(34,7,8,9)          -177.1933         calculate D2E/DX2 analytically  !
 ! D70   D(34,7,8,35)           60.5192         calculate D2E/DX2 analytically  !
 ! D71   D(34,7,8,36)          -56.2269         calculate D2E/DX2 analytically  !
 ! D72   D(7,8,9,4)             55.2663         calculate D2E/DX2 analytically  !
 ! D73   D(7,8,9,37)           177.6519         calculate D2E/DX2 analytically  !
 ! D74   D(7,8,9,38)           -65.2327         calculate D2E/DX2 analytically  !
 ! D75   D(35,8,9,4)           177.7685         calculate D2E/DX2 analytically  !
 ! D76   D(35,8,9,37)          -59.8459         calculate D2E/DX2 analytically  !
 ! D77   D(35,8,9,38)           57.2695         calculate D2E/DX2 analytically  !
 ! D78   D(36,8,9,4)           -65.7336         calculate D2E/DX2 analytically  !
 ! D79   D(36,8,9,37)           56.652          calculate D2E/DX2 analytically  !
 ! D80   D(36,8,9,38)          173.7674         calculate D2E/DX2 analytically  !
 ! D81   D(24,10,11,12)          0.1431         calculate D2E/DX2 analytically  !
 ! D82   D(24,10,11,39)       -179.5649         calculate D2E/DX2 analytically  !
 ! D83   D(45,10,11,12)       -179.9421         calculate D2E/DX2 analytically  !
 ! D84   D(45,10,11,39)          0.3499         calculate D2E/DX2 analytically  !
 ! D85   D(11,10,24,23)          0.3043         calculate D2E/DX2 analytically  !
 ! D86   D(11,10,24,44)       -179.9306         calculate D2E/DX2 analytically  !
 ! D87   D(45,10,24,23)       -179.611          calculate D2E/DX2 analytically  !
 ! D88   D(45,10,24,44)          0.1541         calculate D2E/DX2 analytically  !
 ! D89   D(10,11,12,13)         -0.7251         calculate D2E/DX2 analytically  !
 ! D90   D(10,11,12,40)       -179.4062         calculate D2E/DX2 analytically  !
 ! D91   D(39,11,12,13)        178.9844         calculate D2E/DX2 analytically  !
 ! D92   D(39,11,12,40)          0.3033         calculate D2E/DX2 analytically  !
 ! D93   D(11,12,13,23)          0.8614         calculate D2E/DX2 analytically  !
 ! D94   D(11,12,13,41)       -178.9754         calculate D2E/DX2 analytically  !
 ! D95   D(40,12,13,23)        179.5528         calculate D2E/DX2 analytically  !
 ! D96   D(40,12,13,41)         -0.2839         calculate D2E/DX2 analytically  !
 ! D97   D(11,12,40,46)        -90.2578         calculate D2E/DX2 analytically  !
 ! D98   D(13,12,40,46)         91.0356         calculate D2E/DX2 analytically  !
 ! D99   D(12,13,23,22)       -179.4706         calculate D2E/DX2 analytically  !
 ! D100  D(12,13,23,24)         -0.4022         calculate D2E/DX2 analytically  !
 ! D101  D(41,13,23,22)          0.3656         calculate D2E/DX2 analytically  !
 ! D102  D(41,13,23,24)        179.4341         calculate D2E/DX2 analytically  !
 ! D103  D(1,14,15,16)         179.9607         calculate D2E/DX2 analytically  !
 ! D104  D(1,14,15,17)           0.0354         calculate D2E/DX2 analytically  !
 ! D105  D(14,15,16,3)           0.6897         calculate D2E/DX2 analytically  !
 ! D106  D(17,15,16,3)        -179.3846         calculate D2E/DX2 analytically  !
 ! D107  D(14,15,17,18)       -179.8875         calculate D2E/DX2 analytically  !
 ! D108  D(14,15,17,20)         -0.0309         calculate D2E/DX2 analytically  !
 ! D109  D(16,15,17,18)          0.186          calculate D2E/DX2 analytically  !
 ! D110  D(16,15,17,20)       -179.9574         calculate D2E/DX2 analytically  !
 ! D111  D(15,17,18,2)         179.8841         calculate D2E/DX2 analytically  !
 ! D112  D(20,17,18,2)           0.0229         calculate D2E/DX2 analytically  !
 ! D113  D(15,17,20,19)       -179.9334         calculate D2E/DX2 analytically  !
 ! D114  D(15,17,20,21)          0.0379         calculate D2E/DX2 analytically  !
 ! D115  D(18,17,20,19)         -0.0428         calculate D2E/DX2 analytically  !
 ! D116  D(18,17,20,21)        179.9285         calculate D2E/DX2 analytically  !
 ! D117  D(2,19,20,17)           0.0443         calculate D2E/DX2 analytically  !
 ! D118  D(2,19,20,21)        -179.9265         calculate D2E/DX2 analytically  !
 ! D119  D(42,19,20,17)        179.8661         calculate D2E/DX2 analytically  !
 ! D120  D(42,19,20,21)         -0.1046         calculate D2E/DX2 analytically  !
 ! D121  D(17,20,21,1)          -0.0441         calculate D2E/DX2 analytically  !
 ! D122  D(19,20,21,1)         179.9207         calculate D2E/DX2 analytically  !
 ! D123  D(1,22,23,13)          -6.6599         calculate D2E/DX2 analytically  !
 ! D124  D(1,22,23,24)         174.2501         calculate D2E/DX2 analytically  !
 ! D125  D(43,22,23,13)        174.9657         calculate D2E/DX2 analytically  !
 ! D126  D(43,22,23,24)         -4.1243         calculate D2E/DX2 analytically  !
 ! D127  D(13,23,24,10)         -0.1719         calculate D2E/DX2 analytically  !
 ! D128  D(13,23,24,44)       -179.9372         calculate D2E/DX2 analytically  !
 ! D129  D(22,23,24,10)        178.9874         calculate D2E/DX2 analytically  !
 ! D130  D(22,23,24,44)         -0.7779         calculate D2E/DX2 analytically  !
 ! D131  D(12,40,46,47)       -179.6572         calculate D2E/DX2 analytically  !
 ! D132  D(12,40,46,48)        -60.6941         calculate D2E/DX2 analytically  !
 ! D133  D(12,40,46,49)         61.4358         calculate D2E/DX2 analytically  !
 --------------------------------------------------------------------------------
 Trust Radius=3.00D-01 FncErr=1.00D-07 GrdErr=1.00D-07 EigMax=2.50D+02 EigMin=1.00D-04
 Number of steps in this run=    287 maximum allowed number of steps=    294.
 GradGradGradGradGradGradGradGradGradGradGradGradGradGradGradGradGradGrad

 Leave Link  103 at Tue Feb  4 10:09:57 2025, MaxMem=   104857600 cpu:               0.1 elap:               0.0
 (Enter /home/pb777/GAUSSIAN/g16/l202.exe)
                          Input orientation:                          
 ---------------------------------------------------------------------
 Center     Atomic      Atomic             Coordinates (Angstroms)
 Number     Number       Type             X           Y           Z
 ---------------------------------------------------------------------
      1          6           0        1.463984   29.278842    7.043547
      2          6           0       -2.232032   31.520153    7.679482
      3          6           0       -0.278778   26.593484    9.577162
      4          6           0       -1.210483   25.851563   10.522464
      5          6           0       -0.630836   24.467957   10.851045
      6          6           0       -1.530924   23.690710   11.816146
      7          6           0       -1.807118   24.487566   13.093593
      8          6           0       -2.384999   25.867648   12.770829
      9          6           0       -1.483329   26.644808   11.807644
     10          6           0        5.747046   27.078071    5.895308
     11          6           0        5.620198   25.994603    6.748434
     12          6           0        4.492548   25.900608    7.546813
     13          6           0        3.505090   26.880420    7.511235
     14          7           0        0.887727   28.392163    7.875028
     15          6           0       -0.327988   28.651603    8.366765
     16          8           0       -0.924054   27.801525    9.186076
     17          6           0       -0.985032   29.837809    8.011642
     18          7           0       -2.212809   30.402079    8.331331
     19          7           0       -1.088356   31.743380    6.938066
     20          6           0       -0.276942   30.663856    7.146070
     21          7           0        0.937630   30.435049    6.636663
     22          7           0        2.716460   29.028097    6.525159
     23          6           0        3.632626   27.969771    6.649731
     24          6           0        4.769230   28.050126    5.842157
     25          1           0       -3.034539   32.230700    7.686156
     26          1           0       -0.069499   26.006546    8.692593
     27          1           0        0.661262   26.831584   10.057505
     28          1           0       -2.155939   25.711360   10.000883
     29          1           0        0.355824   24.586879   11.296782
     30          1           0       -0.490650   23.896085    9.936717
     31          1           0       -1.072260   22.736395   12.059936
     32          1           0       -2.474721   23.465147   11.322373
     33          1           0       -0.878652   24.607473   13.649758
     34          1           0       -2.486530   23.936173   13.738004
     35          1           0       -2.526360   26.438185   13.684589
     36          1           0       -3.370768   25.749732   12.323765
     37          1           0       -1.932589   27.600191   11.561923
     38          1           0       -0.534175   26.858586   12.299247
     39          1           0        6.382875   25.240369    6.796815
     40         16           0        4.308282   24.520155    8.670802
     41          1           0        2.654952   26.797534    8.144194
     42          1           0       -0.883234   32.529799    6.365706
     43          1           0        3.006076   29.760787    5.917492
     44          1           0        4.885344   28.884328    5.171690
     45          1           0        6.615036   27.168087    5.266893
     46          6           0        3.439127   23.333339    7.606213
     47          1           0        3.266800   22.443212    8.198226
     48          1           0        2.487924   23.731361    7.279494
     49          1           0        4.039557   23.074106    6.744855
 ---------------------------------------------------------------------
                    Distance matrix (angstroms):
                    1          2          3          4          5
     1  C    0.000000
     2  C    4.369030   0.000000
     3  C    4.082593   5.629250   0.000000
     4  C    5.567932   6.423319   1.520564   0.000000
     5  C    6.483049   7.896589   2.502916   1.535683   0.000000
     6  C    7.935640   8.882777   3.873889   2.538815   1.531565
     7  C    8.382093   8.885406   4.374472   2.971055   2.532399
     8  C    7.697575   7.608944   3.893907   2.536709   2.953269
     9  C    6.190429   6.432050   2.535474   1.534722   2.525967
    10  C    4.950400   9.304894   7.078236   8.445241   8.488192
    11  C    5.305415   9.646557   6.569496   7.805252   7.631349
    12  C    4.564859   8.764523   5.231439   6.432843   6.262548
    13  C    3.183908   7.380380   4.320653   5.688820   5.837824
    14  N    1.345225   4.422155   2.737379   4.226825   5.153844
    15  C    2.314195   3.510887   2.388165   3.642259   4.875064
    16  O    3.532084   4.220051   1.424321   2.381244   3.737750
    17  C    2.692087   2.120288   3.670870   4.716482   6.084650
    18  N    4.054485   1.294360   4.449490   5.149069   6.638177
    19  N    3.549580   1.381131   5.843088   6.897560   8.273603
    20  C    2.227015   2.200035   4.741111   5.952285   7.227810
    21  N    1.333949   3.508800   4.988367   6.381393   7.471766
    22  N    1.378512   5.659539   4.920723   6.441249   7.121275
    23  C    2.563546   6.932519   5.075737   6.552905   6.934757
    24  C    3.725283   8.027112   6.446274   7.905436   8.190336
    25  H    5.418775   1.071886   6.553497   7.215623   8.720922
    26  H    3.972258   6.008561   1.082015   2.162011   2.709478
    27  H    3.964514   6.000736   1.082172   2.163344   2.808195
    28  H    5.880188   6.255939   2.116936   1.088849   2.143540
    29  H    6.429038   8.237242   2.717771   2.156922   1.089185
    30  H    6.416003   8.139652   2.729493   2.164521   1.087513
    31  H    8.625561   9.883717   4.655203   3.476665   2.157447
    32  H    8.223186   8.843793   4.201716   2.816582   2.151206
    33  H    8.423280   9.233687   4.570572   3.381988   2.813126
    34  H    9.432201   9.710160   5.408149   3.954328   3.472884
    35  H    8.252006   7.872378   4.684730   3.474866   3.937484
    36  H    7.981863   7.494254   4.220918   2.814585   3.364384
    37  H    5.896634   5.525316   2.772693   2.158613   3.465660
    38  H    6.121491   6.779023   2.746862   2.151382   2.796738
    39  H    6.369116  10.697263   7.344309   8.480159   8.137908
    40  S    5.777810   9.631116   5.114812   5.971437   5.399173
    41  H    2.964239   6.811879   3.271361   4.636013   4.852873
    42  H    4.066648   2.136504   6.776330   7.873028   9.229045
    43  H    1.969345   5.799806   5.849381   7.366625   8.098218
    44  H    3.919846   7.993349   7.164098   8.659534   9.065740
    45  H    5.843383  10.150453   8.150660   9.518036   9.538140
    46  C    6.290213   9.959485   5.323158   6.038612   5.327372
    47  H    7.163049  10.625306   5.630040   6.088103   5.131141
    48  H    5.646120   9.116099   4.596267   5.356335   4.798459
    49  H    6.724696  10.561348   6.249481   7.038999   6.373083
                    6          7          8          9         10
     6  C    0.000000
     7  C    1.530730   0.000000
     8  C    2.525852   1.530605   0.000000
     9  C    2.954494   2.532232   1.531245   0.000000
    10  C    9.974937  10.751345  10.717652   9.349960   0.000000
    11  C    9.062459   9.884191  10.018410   8.745197   1.384852
    12  C    7.706690   8.511713   8.636671   7.376966   2.384879
    13  C    7.353091   8.068955   7.961293   6.587790   2.770677
    14  N    6.594388   7.052765   6.407245   4.913312   5.409168
    15  C    6.160823   6.470698   5.601560   4.147492   6.744637
    16  O    4.917760   5.199117   4.327204   2.919487   7.473695
    17  C    7.249763   7.424766   6.353892   4.985297   7.577328
    18  N    7.592850   7.604287   6.348216   5.170491   8.963399
    19  N    9.425340   9.542221   8.380133   7.061461   8.341174
    20  C    8.485685   8.709823   7.686704   6.272032   7.121143
    21  N    8.854768   9.197725   8.338406   6.853176   5.911801
    22  N    8.632642   9.177337   8.661508   7.157021   3.658383
    23  C    8.465486   9.123592   8.837340   7.384619   2.415585
    24  C    9.715194  10.417462  10.195720   8.755367   1.379797
    25  H    9.604640   9.523815   8.170938   7.113024  10.337938
    26  H    4.153968   4.969450   4.691785   3.479920   6.542565
    27  H    4.214687   4.561267   4.191779   2.774373   6.576460
    28  H    2.787266   3.344279   2.783791   2.141989   9.010040
    29  H    2.152365   2.813666   3.365309   2.806874   8.027903
    30  H    2.157916   3.471139   3.937996   3.470051   8.084978
    31  H    1.086519   2.162189   3.468919   3.938060  10.166401
    32  H    1.088780   2.151337   2.806793   3.365797  10.493031
    33  H    2.151290   1.088921   2.151660   2.812428  10.494533
    34  H    2.160317   1.086692   2.162483   3.474105  11.797083
    35  H    3.468514   2.161365   1.086486   2.157203  11.381194
    36  H    2.807540   2.151906   1.088812   2.151736  11.234949
    37  H    3.938275   3.471338   2.160517   1.083960   9.558238
    38  H    3.355940   2.805906   2.151720   1.090077   8.972867
    39  H    9.498597  10.358191  10.628168   9.431757   2.143395
    40  S    6.684122   7.547202   7.964042   6.920743   4.039349
    41  H    6.376296   7.052842   6.904459   5.528975   3.833697
    42  H   10.404629  10.525947   9.362968   8.037906   8.596698
    43  H    9.603350  10.122753   9.549265   8.034798   3.835411
    44  H   10.596742  11.263974  10.940985   9.466326   2.128078
    45  H   11.015513  11.805724  11.789862  10.422992   1.075368
    46  C    6.523240   7.678976   8.186356   7.269692   4.719820
    47  H    6.137080   7.340889   8.036062   7.296920   5.739074
    48  H    6.060858   7.267942   7.646167   6.690528   4.872198
    49  H    7.558336   8.745739   9.240734   8.299640   4.434973
                   11         12         13         14         15
    11  C    0.000000
    12  C    1.384860   0.000000
    13  C    2.416654   1.391535   0.000000
    14  N    5.423448   4.394349   3.044388   0.000000
    15  C    6.712641   5.610513   4.308307   1.336816   0.000000
    16  O    7.213480   5.969946   4.823986   2.313062   1.322572
    17  C    7.745643   6.761767   5.399792   2.369764   1.401750
    18  N    9.126193   8.114217   6.765279   3.723076   2.572542
    19  N    8.836804   8.102781   6.713915   4.001682   3.489761
    20  C    7.532349   6.752566   5.362042   2.654886   2.354117
    21  N    6.454184   5.833264   4.471255   2.389439   2.788499
    22  N    4.205191   3.738910   2.491345   2.360258   3.577978
    23  C    2.803832   2.413640   1.394683   3.035496   4.370305
    24  C    2.402219   2.757323   2.398350   4.394953   5.719882
    25  H   10.708534   9.835981   8.451204   5.491285   4.538567
    26  H    6.012699   4.704924   3.864834   2.697381   2.677555
    27  H    6.020094   4.674296   3.817490   2.692564   2.673889
    28  H    8.433680   7.089476   6.293830   4.579288   3.828417
    29  H    7.098083   5.735908   5.432179   5.145047   5.057131
    30  H    7.204956   5.878947   5.545733   5.134706   5.010604
    31  H    9.144231   7.832472   7.669143   7.303610   7.013069
    32  H    9.635703   8.290305   7.870641   6.889538   6.343768
    33  H    9.580577   8.232128   7.878131   7.126815   6.675944
    34  H   10.900011   9.534012   9.129115   8.100367   7.466243
    35  H   10.708567   9.339505   8.642005   7.016055   6.165331
    36  H   10.582143   9.201836   8.468549   6.701380   5.773838
    37  H    9.099021   7.764798   6.818687   4.708992   3.726828
    38  H    8.332724   6.983645   6.264279   4.893606   4.326874
    39  H    1.073726   2.138165   3.388482   6.425963   7.690055
    40  S    2.755108   1.789681   2.749648   5.227418   6.217419
    41  H    3.374245   2.130282   1.063128   2.395490   3.519238
    42  H    9.227670   8.616276   7.244661   4.747040   4.399199
    43  H    4.659211   4.445815   3.329497   3.192566   4.283131
    44  H    3.372928   3.833807   3.375532   4.850896   6.118945
    45  H    2.135821   3.362958   3.845983   6.411146   7.746974
    46  C    3.546151   2.775626   3.548965   5.672178   6.561518
    47  H    4.500307   3.725640   4.496393   6.415175   7.176003
    48  H    3.900696   2.965740   3.317364   4.963705   5.772374
    49  H    3.320805   2.972786   3.919314   6.284350   7.267359
                   16         17         18         19         20
    16  O    0.000000
    17  C    2.351481   0.000000
    18  N    3.025617   1.388538   0.000000
    19  N    4.540789   2.189622   2.237112   0.000000
    20  C    3.573977   1.390310   2.284940   1.366394   0.000000
    21  N    4.111061   2.438010   3.577464   2.430472   1.336799
    22  N    4.673147   4.070173   5.426580   4.692535   3.467231
    23  C    5.217728   5.164023   6.550802   6.050697   4.773800
    24  C    6.607351   6.404218   7.776666   7.010882   5.830577
    25  H    5.130448   3.167388   2.106026   2.141202   3.217303
    26  H    2.048350   3.997557   4.903569   6.085039   4.911751
    27  H    2.052657   3.991645   4.897795   6.076003   4.903365
    28  H    2.559344   4.728180   4.979305   6.848785   6.017292
    29  H    4.053038   6.337373   7.014864   8.502916   7.386369
    30  H    4.000470   6.265333   6.918890   8.421947   7.323667
    31  H    5.825511   8.174739   8.600352  10.361448   9.360729
    32  H    5.076663   7.334229   7.558832   9.469599   8.607737
    33  H    5.488943   7.691299   7.977662   9.798570   8.907288
    34  H    6.172708   8.359128   8.432969  10.447322   9.674584
    35  H    4.966155   6.790836   6.668443   8.702213   8.103604
    36  H    4.476757   6.403007   6.238968   8.374901   7.780032
    37  H    2.588885   4.302242   4.285536   6.265685   5.623786
    38  H    3.276122   5.240477   5.578397   7.273967   6.411043
    39  H    8.103043   8.769169  10.143164   9.905979   8.595892
    40  S    6.197599   7.532005   8.788452   9.181561   7.816274
    41  H    3.860414   4.744504   6.059938   6.318900   4.953856
    42  H    5.505700   3.156942   3.187264   0.994046   2.111470
    43  H    5.474329   4.507809   5.785726   4.662255   3.619826
    44  H    7.144009   6.590582   7.916481   6.854149   5.806383
    45  H    8.520512   8.510118   9.888394   9.114186   7.953054
    46  C    6.441894   7.876908   9.079496   9.574619   8.231487
    47  H    6.873909   8.531879   9.663715  10.346426   9.013552
    48  H    5.642950   7.063014   8.228106   8.780593   7.464702
    49  H    7.276365   8.520500   9.762590  10.074182   8.740563
                   21         22         23         24         25
    21  N    0.000000
    22  N    2.270723   0.000000
    23  C    3.652502   1.405323   0.000000
    24  C    4.582604   2.374191   1.396603   0.000000
    25  H    4.483740   6.684203   7.980024   9.043028   0.000000
    26  H    4.985257   4.646407   4.661895   5.976161   6.967386
    27  H    4.976294   4.639610   4.662338   6.010774   6.959360
    28  H    6.572777   6.842637   7.059613   8.409685   6.973643
    29  H    7.500420   6.932922   6.616379   7.824651   9.108193
    30  H    7.462465   6.947073   6.663378   7.854159   9.000122
    31  H    9.629165   9.196394   8.876626  10.050847  10.635897
    32  H    9.065294   8.994889   8.912065  10.174951   9.506334
    33  H    9.297475   9.122865   8.980928  10.232745   9.915946
    34  H   10.217109  10.248118  10.195960  11.485428  10.282235
    35  H    8.811777   9.244038   9.474602  10.831792   8.354200
    36  H    8.535667   9.023627   9.282821  10.656577   7.976428
    37  H    6.366535   7.001540   7.432217   8.822276   6.138198
    38  H    6.857271   6.972338   7.107320   8.440372   7.509463
    39  H    7.527354   5.278568   3.877518   3.377863  11.761945
    40  S    7.105279   5.240155   4.054762   4.546911  10.692944
    41  H    4.295737   2.756894   2.136213   3.367274   7.880317
    42  H    2.788717   5.024454   6.423980   7.231316   2.541882
    43  H    2.291354   0.994974   2.033833   2.457794   6.761485
    44  H    4.487240   2.560587   2.142503   1.076523   8.957974
    45  H    6.691954   4.499085   3.383742   2.125070  11.162311
    46  C    7.591561   5.841335   4.738017   5.208565  11.003535
    47  H    8.469532   6.816358   5.751046   6.264650  11.651782
    48  H    6.910578   5.355060   4.435208   5.091368  10.144050
    49  H    7.988563   6.103185   4.913469   5.109605  11.609139
                   26         27         28         29         30
    26  H    0.000000
    27  H    1.754333   0.000000
    28  H    2.480321   3.032282   0.000000
    29  H    2.996357   2.582208   3.041836   0.000000
    30  H    2.485812   3.155732   2.464249   1.744561   0.000000
    31  H    4.799836   4.877028   3.776834   2.458886   2.488215
    32  H    4.377162   4.771496   2.625534   3.044819   2.458106
    33  H    5.213984   4.496920   4.020488   2.657227   3.800434
    34  H    5.965288   5.642523   4.150500   3.802888   4.293591
    35  H    5.580547   4.844732   3.772953   4.175637   4.965171
    36  H    4.914239   4.750116   2.621652   4.036634   4.174815
    37  H    3.774105   3.095496   2.460572   3.793044   4.294285
    38  H    3.734950   2.540710   3.037882   2.637743   3.789440
    39  H    6.768614   6.775022   9.132319   7.549973   7.675379
    40  S    4.623289   4.535019   6.706283   4.745750   5.002175
    41  H    2.889469   2.763461   5.269890   4.484618   4.639650
    42  H    6.973478   6.963082   7.831055   9.430841   9.351324
    43  H    5.590588   5.587316   7.727765   7.920223   7.923130
    44  H    6.725239   6.777006   9.108704   8.746505   8.745819
    45  H    7.600500   7.649224  10.072871   9.066417   9.110655
    46  C    4.542765   5.095398   6.534079   4.969750   4.603377
    47  H    4.906388   5.431717   6.583044   4.761316   4.387667
    48  H    3.703205   4.545924   5.735139   4.627781   3.994981
    49  H    5.410844   6.041951   7.479372   6.048009   5.602358
                   31         32         33         34         35
    31  H    0.000000
    32  H    1.744126   0.000000
    33  H    2.462915   3.044514   0.000000
    34  H    2.501107   2.461153   1.744621   0.000000
    35  H    4.296179   3.797589   2.463262   2.502899   0.000000
    36  H    3.799072   2.650474   3.045269   2.463929   1.743225
    37  H    4.964342   4.177305   3.798184   4.297349   2.491692
    38  H    4.164044   4.029321   2.647651   3.797658   2.462663
    39  H    9.463053  10.103915  10.004657  11.337873  11.324781
    40  S    6.604412   7.358872   7.190404   8.496295   8.690755
    41  H    6.761508   6.893415   6.898838   8.118678   7.594149
    42  H   11.330082  10.453196  10.762003  11.435548   9.663006
    43  H   10.183542   9.944192  10.071529  11.191750  10.098283
    44  H   10.988087  11.016758  11.108230  12.337361  11.549303
    45  H   11.174965  11.532748  11.531892  12.846925  12.448111
    46  C    6.367464   6.985758   7.535985   8.548431   9.064974
    47  H    5.816029   6.615868   7.182479   8.125199   8.923042
    48  H    6.042970   6.406527   7.258214   8.154721   8.572933
    49  H    7.382060   7.971349   8.614969   9.604015  10.128583
                   36         37         38         39         40
    36  H    0.000000
    37  H    2.464337   0.000000
    38  H    3.045722   1.746192   0.000000
    39  H   11.222308   9.870257   8.985598   0.000000
    40  S    8.592078   7.536158   6.487161   2.886949   0.000000
    41  H    7.407834   5.776735   5.238199   4.258827   2.863088
    42  H    9.362457   7.238982   8.215316  10.301359   9.819354
    43  H    9.889036   7.805011   7.853849   5.710532   6.061410
    44  H   11.364033   9.432300   9.180244   4.261698   5.623414
    45  H   12.309649  10.624312  10.032996   2.471974   4.890732
    46  C    8.629538   7.918902   7.087952   3.599659   1.815851
    47  H    8.485898   8.058693   7.124697   4.415650   2.371013
    48  H    7.990167   7.269662   6.641576   4.204846   2.423146
    49  H    9.653814   8.908205   8.129735   3.191636   2.423334
                   41         42         43         44         45
    41  H    0.000000
    42  H    6.967111   0.000000
    43  H    3.723219   4.795316   0.000000
    44  H    4.262057   6.927599   2.203644   0.000000
    45  H    4.909016   9.283286   4.491099   2.438521   0.000000
    46  C    3.592353  10.237019   6.659685   6.231527   5.501283
    47  H    4.397431  11.059845   7.669201   7.298464   6.490597
    48  H    3.190145   9.466374   6.203025   6.061644   5.735391
    49  H    4.211793  10.667135   6.816475   6.078559   5.057484
                   46         47         48         49
    46  C    0.000000
    47  H    1.082822   0.000000
    48  H    1.081644   1.763532   0.000000
    49  H    1.081506   1.762802   1.767877   0.000000
 Stoichiometry    C19H23N5OS
 Framework group  C1[X(C19H23N5OS)]
 Deg. of freedom   141
 Full point group                 C1      NOp   1
 RotChk:  IX=1 Diff= 1.56D-15
 Largest Abelian subgroup         C1      NOp   1
 Largest concise Abelian subgroup C1      NOp   1
                         Standard orientation:                         
 ---------------------------------------------------------------------
 Center     Atomic      Atomic             Coordinates (Angstroms)
 Number     Number       Type             X           Y           Z
 ---------------------------------------------------------------------
      1          6           0       -1.370574   -2.193030    0.050229
      2          6           0        1.877462   -5.102117   -0.225271
      3          6           0        1.664889    0.523118   -0.225573
      4          6           0        3.011725    1.219177   -0.342407
      5          6           0        2.808293    2.735384   -0.476764
      6          6           0        4.142877    3.479577   -0.580463
      7          6           0        5.063313    3.151568    0.597816
      8          6           0        5.268879    1.641103    0.735615
      9          6           0        3.934124    0.898177    0.841448
     10          6           0       -5.395068    0.682219    0.257245
     11          6           0       -4.736885    1.899769    0.303958
     12          6           0       -3.352132    1.912198    0.292024
     13          6           0       -2.624759    0.726671    0.249324
     14          7           0       -0.370586   -1.298273   -0.044962
     15          6           0        0.888267   -1.734174   -0.156135
     16          8           0        1.895260   -0.882191   -0.252503
     17          6           0        1.150271   -3.111119   -0.172897
     18          7           0        2.302164   -3.880266   -0.270834
     19          7           0        0.505474   -5.202461   -0.102384
     20          6           0        0.026735   -3.923167   -0.067038
     21          7           0       -1.243142   -3.520869    0.045220
     22          7           0       -2.675245   -1.762701    0.164012
     23          6           0       -3.288688   -0.498837    0.199617
     24          6           0       -4.685287   -0.499761    0.202716
     25          1           0        2.494019   -5.977531   -0.274723
     26          1           0        1.014841    0.786817   -1.049381
     27          1           0        1.165783    0.784231    0.698445
     28          1           0        3.485860    0.855590   -1.252678
     29          1           0        2.257890    3.103446    0.388053
     30          1           0        2.196325    2.953293   -1.348943
     31          1           0        3.964654    4.550148   -0.631813
     32          1           0        4.636552    3.201443   -1.510178
     33          1           0        4.624171    3.540021    1.515426
     34          1           0        6.019989    3.652113    0.474835
     35          1           0        5.881547    1.423790    1.606169
     36          1           0        5.817732    1.271964   -0.129259
     37          1           0        4.103522   -0.171049    0.896489
     38          1           0        3.435494    1.187572    1.766590
     39          1           0       -5.286708    2.820711    0.353431
     40         16           0       -2.473668    3.469618    0.367544
     41          1           0       -1.562116    0.757756    0.257325
     42          1           0       -0.037000   -6.033577   -0.046754
     43          1           0       -3.303870   -2.532590    0.209566
     44          1           0       -5.214936   -1.436250    0.165811
     45          1           0       -6.469990    0.652158    0.264683
     46          6           0       -2.317801    3.853908   -1.400319
     47          1           0       -1.784801    4.793512   -1.474865
     48          1           0       -1.756134    3.086006   -1.914916
     49          1           0       -3.290704    3.962066   -1.860121
 ---------------------------------------------------------------------
 Rotational constants (GHZ):           0.1719019           0.1420792           0.0800307
 Leave Link  202 at Tue Feb  4 10:09:57 2025, MaxMem=   104857600 cpu:               0.0 elap:               0.0
 (Enter /home/pb777/GAUSSIAN/g16/l301.exe)
 Standard basis: 6-31G(d) (6D, 7F)
 Ernie: Thresh=  0.10000D-02 Tol=  0.10000D-05 Strict=F.
 There are   440 symmetry adapted cartesian basis functions of A   symmetry.
 There are   440 symmetry adapted basis functions of A   symmetry.
   440 basis functions,   844 primitive gaussians,   440 cartesian basis functions
    98 alpha electrons       98 beta electrons
       nuclear repulsion energy      2396.1896274999 Hartrees.
 IExCor=    0 DFT=F Ex=HF Corr=None ExCW=0 ScaHFX=  1.000000
 ScaDFX=  1.000000  1.000000  1.000000  1.000000 ScalE2=  1.000000  1.000000
 IRadAn=      5 IRanWt=     -1 IRanGd=            0 ICorTp=0 IEmpDi=  4
 NAtoms=   49 NActive=   49 NUniq=   49 SFac= 1.00D+00 NAtFMM=   60 NAOKFM=F Big=F
 Integral buffers will be    131072 words long.
 Raffenetti 1 integral format.
 Two-electron integral symmetry is turned on.
 Leave Link  301 at Tue Feb  4 10:09:58 2025, MaxMem=   104857600 cpu:               0.7 elap:               0.0
 (Enter /home/pb777/GAUSSIAN/g16/l302.exe)
 NPDir=0 NMtPBC=     1 NCelOv=     1 NCel=       1 NClECP=     1 NCelD=      1
         NCelK=      1 NCelE2=     1 NClLst=     1 CellRange=     0.0.
 One-electron integrals computed using PRISM.
 One-electron integral symmetry used in STVInt
 NBasis=   440 RedAO= T EigKep=  3.95D-04  NBF=   440
 NBsUse=   440 1.00D-06 EigRej= -1.00D+00 NBFU=   440
 Leave Link  302 at Tue Feb  4 10:09:58 2025, MaxMem=   104857600 cpu:               2.8 elap:               0.2
 (Enter /home/pb777/GAUSSIAN/g16/l303.exe)
 DipDrv:  MaxL=1.
 Leave Link  303 at Tue Feb  4 10:09:58 2025, MaxMem=   104857600 cpu:               0.8 elap:               0.1
 (Enter /home/pb777/GAUSSIAN/g16/l401.exe)
 Initial guess from the checkpoint file:  "binder_22.antechamber.chk"
 B after Tr=    -0.000000   -0.000000   -0.000000
         Rot=    1.000000   -0.000000   -0.000000    0.000000 Ang=   0.00 deg.
 Guess basis will be translated and rotated to current coordinates.
 JPrj=2 DoOrth=T DoCkMO=T.
 Leave Link  401 at Tue Feb  4 10:09:59 2025, MaxMem=   104857600 cpu:               3.1 elap:               0.2
 (Enter /home/pb777/GAUSSIAN/g16/l502.exe)
 Integral symmetry usage will be decided dynamically.
 Closed shell SCF:
 Using DIIS extrapolation, IDIIS=  1040.
 NGot=   104857600 LenX=   104458438 LenY=   104264397
 Requested convergence on RMS density matrix=1.00D-08 within 128 cycles.
 Requested convergence on MAX density matrix=1.00D-06.
 Requested convergence on             energy=1.00D-06.
 No special actions if energy rises.
 Fock matrices will be formed incrementally for  20 cycles.

 Cycle   1  Pass 1  IDiag  1:
 FoFJK:  IHMeth= 1 ICntrl=       0 DoSepK=F KAlg= 0 I1Cent=           0 FoldK=F
 IRaf= 680000000 NMat=       1 IRICut=       1 DoRegI=T DoRafI=F ISym2E= 0 IDoP0=0 IntGTp=1.
 FoFCou: FMM=F IPFlag=           0 FMFlag=      100000 FMFlg1=           0
         NFxFlg=           0 DoJE=F BraDBF=F KetDBF=F FulRan=T
         wScrn=  0.000000 ICntrl=         0 IOpCl=  0 I1Cent=           0 NGrid=           0
         NMat0=    1 NMatS0=      1 NMatT0=    0 NMatD0=    1 NMtDS0=    0 NMtDT0=    0
 Symmetry not used in FoFCou.
 E= -1477.55069567231    
 DIIS: error= 1.35D-08 at cycle   1 NSaved=   1.
 NSaved= 1 IEnMin= 1 EnMin= -1477.55069567231     IErMin= 1 ErrMin= 1.35D-08
 ErrMax= 1.35D-08  0.00D+00 EMaxC= 1.00D-01 BMatC= 7.06D-14 BMatP= 7.06D-14
 IDIUse=1 WtCom= 1.00D+00 WtEn= 0.00D+00
 Coeff-Com:  0.100D+01
 Coeff:      0.100D+01
 Gap=     0.401 Goal=   None    Shift=    0.000
 RMSDP=1.52D-09 MaxDP=9.47D-08              OVMax= 2.07D-07

 SCF Done:  E(RHF) =  -1477.55069567     A.U. after    1 cycles
            NFock=  1  Conv=0.15D-08     -V/T= 2.0012
 KE= 1.475767408102D+03 PE=-8.260653384343D+03 EE= 2.911145653069D+03
 Leave Link  502 at Tue Feb  4 10:10:00 2025, MaxMem=   104857600 cpu:              15.1 elap:               1.0
 (Enter /home/pb777/GAUSSIAN/g16/l801.exe)
 Range of M.O.s used for correlation:     1   440
 NBasis=   440 NAE=    98 NBE=    98 NFC=     0 NFV=     0
 NROrb=    440 NOA=    98 NOB=    98 NVA=   342 NVB=   342

 **** Warning!!: The largest alpha MO coefficient is  0.10038272D+02

 Leave Link  801 at Tue Feb  4 10:10:00 2025, MaxMem=   104857600 cpu:               0.4 elap:               0.0
 (Enter /home/pb777/GAUSSIAN/g16/l1101.exe)
 Using compressed storage, NAtomX=    49.
 Will process     50 centers per pass.
 PrsmSu:  requested number of processors reduced to:   6 ShMem   1 Linda.
 Leave Link 1101 at Tue Feb  4 10:10:01 2025, MaxMem=   104857600 cpu:               4.1 elap:               0.4
 (Enter /home/pb777/GAUSSIAN/g16/l1102.exe)
 Symmetrizing basis deriv contribution to polar:
 IMax=3 JMax=2 DiffMx= 0.00D+00
 Leave Link 1102 at Tue Feb  4 10:10:01 2025, MaxMem=   104857600 cpu:               0.6 elap:               0.0
 (Enter /home/pb777/GAUSSIAN/g16/l1110.exe)
 Forming Gx(P) for the SCF density, NAtomX=    49.
 Integral derivatives from FoFJK, PRISM(SPDF).
 Do as many integral derivatives as possible in FoFJK.
 G2DrvN: MDV=     104853936.
 G2DrvN: will do    10 centers at a time, making    5 passes.
 G2DrvN:  IPasSy=1 do centers    0 through    9.
 Calling FoFCou, ICntrl=  3107 FMM=F I1Cent=   0 AccDes= 0.00D+00.
 FoFJK:  IHMeth= 1 ICntrl=    3107 DoSepK=F KAlg= 0 I1Cent=           0 FoldK=F
 IRaf=         0 NMat=       1 IRICut=       1 DoRegI=T DoRafI=F ISym2E= 0 IDoP0=0 IntGTp=1.
 FoFCou: FMM=F IPFlag=           0 FMFlag=      100000 FMFlg1=           0
         NFxFlg=           0 DoJE=F BraDBF=F KetDBF=F FulRan=T
         wScrn=  0.000000 ICntrl=      3107 IOpCl=  0 I1Cent=           0 NGrid=           0
         NMat0=    1 NMatS0=      1 NMatT0=    0 NMatD0=    1 NMtDS0=    0 NMtDT0=    0
 Symmetry not used in FoFCou.
 G2DrvN:  IPasSy=1 do centers   10 through   19.
 Calling FoFCou, ICntrl=  3107 FMM=F I1Cent=   0 AccDes= 0.00D+00.
 G2DrvN:  IPasSy=1 do centers   20 through   29.
 Calling FoFCou, ICntrl=  3107 FMM=F I1Cent=   0 AccDes= 0.00D+00.
 G2DrvN:  IPasSy=1 do centers   30 through   39.
 Calling FoFCou, ICntrl=  3107 FMM=F I1Cent=   0 AccDes= 0.00D+00.
 G2DrvN:  IPasSy=1 do centers   40 through   49.
 Calling FoFCou, ICntrl=  3107 FMM=F I1Cent=   0 AccDes= 0.00D+00.
 End of G2Drv F.D. properties file   721 does not exist.
 End of G2Drv F.D. properties file   722 does not exist.
 End of G2Drv F.D. properties file   788 does not exist.
 Leave Link 1110 at Tue Feb  4 10:10:18 2025, MaxMem=   104857600 cpu:             277.2 elap:              17.4
 (Enter /home/pb777/GAUSSIAN/g16/l1002.exe)
 Minotr:  Closed shell wavefunction.
          IDoAtm=1111111111111111111111111111111111111111111111111
          Direct CPHF calculation.
          Differentiating once with respect to nuclear coordinates.
          Requested convergence is 1.0D-08 RMS, and 1.0D-07 maximum.
          Secondary convergence is 1.0D-12 RMS, and 1.0D-12 maximum.
          NewPWx=T KeepS1=F KeepF1=F KeepIn=T MapXYZ=F SortEE=F KeepMc=T.
 Two-electron integrals replicated using symmetry.
          MDV=     104857600 using IRadAn=       1.
          Solving linear equations simultaneously, MaxMat=     384.
 FoF2E skips out because all densities are zero.
 FoFJK:  IHMeth= 1 ICntrl=       0 DoSepK=F KAlg= 0 I1Cent=           0 FoldK=F
 IRaf= 640000000 NMat=      16 IRICut=       1 DoRegI=T DoRafI=F ISym2E= 2 IDoP0=0 IntGTp=1.
 FoFCou: FMM=F IPFlag=           0 FMFlag=      100000 FMFlg1=           0
         NFxFlg=           0 DoJE=F BraDBF=F KetDBF=F FulRan=T
         wScrn=  0.000000 ICntrl=         0 IOpCl=  0 I1Cent=           0 NGrid=           0
         NMat0=   16 NMatS0=     16 NMatT0=    0 NMatD0=   16 NMtDS0=    0 NMtDT0=    0
 Integrals replicated using symmetry in FoFCou.
          There are   150 degrees of freedom in the 1st order CPHF.  IDoFFX=6 NUNeed=     0.
    144 vectors produced by pass  0 Test12= 3.35D-14 1.00D-09 XBig12= 1.07D-01 7.59D-02.
 AX will form    16 AO Fock derivatives at one time.
    144 vectors produced by pass  1 Test12= 3.35D-14 1.00D-09 XBig12= 1.31D-02 2.68D-02.
    144 vectors produced by pass  2 Test12= 3.35D-14 1.00D-09 XBig12= 3.67D-04 2.38D-03.
    144 vectors produced by pass  3 Test12= 3.35D-14 1.00D-09 XBig12= 5.03D-06 2.24D-04.
    144 vectors produced by pass  4 Test12= 3.35D-14 1.00D-09 XBig12= 4.03D-08 1.64D-05.
    144 vectors produced by pass  5 Test12= 3.35D-14 1.00D-09 XBig12= 2.94D-10 1.28D-06.
    131 vectors produced by pass  6 Test12= 3.35D-14 1.00D-09 XBig12= 1.81D-12 8.67D-08.
     43 vectors produced by pass  7 Test12= 3.35D-14 1.00D-09 XBig12= 9.70D-15 6.26D-09.
 InvSVY:  IOpt=1 It=  1 EMax= 4.44D-16
 Solved reduced A of dimension  1038 with   150 vectors.
 End of Minotr F.D. properties file   721 does not exist.
 End of Minotr F.D. properties file   722 does not exist.
 End of Minotr F.D. properties file   788 does not exist.
 Leave Link 1002 at Tue Feb  4 10:12:31 2025, MaxMem=   104857600 cpu:            2114.4 elap:             132.9
 (Enter /home/pb777/GAUSSIAN/g16/l601.exe)
 Copying SCF densities to generalized density rwf, IOpCl= 0 IROHF=0.

 **********************************************************************

            Population analysis using the SCF density.

 **********************************************************************

 Orbital symmetries:
       Occupied  (A) (A) (A) (A) (A) (A) (A) (A) (A) (A) (A) (A)
                 (A) (A) (A) (A) (A) (A) (A) (A) (A) (A) (A) (A)
                 (A) (A) (A) (A) (A) (A) (A) (A) (A) (A) (A) (A)
                 (A) (A) (A) (A) (A) (A) (A) (A) (A) (A) (A) (A)
                 (A) (A) (A) (A) (A) (A) (A) (A) (A) (A) (A) (A)
                 (A) (A) (A) (A) (A) (A) (A) (A) (A) (A) (A) (A)
                 (A) (A) (A) (A) (A) (A) (A) (A) (A) (A) (A) (A)
                 (A) (A) (A) (A) (A) (A) (A) (A) (A) (A) (A) (A)
                 (A) (A)
       Virtual   (A) (A) (A) (A) (A) (A) (A) (A) (A) (A) (A) (A)
                 (A) (A) (A) (A) (A) (A) (A) (A) (A) (A) (A) (A)
                 (A) (A) (A) (A) (A) (A) (A) (A) (A) (A) (A) (A)
                 (A) (A) (A) (A) (A) (A) (A) (A) (A) (A) (A) (A)
                 (A) (A) (A) (A) (A) (A) (A) (A) (A) (A) (A) (A)
                 (A) (A) (A) (A) (A) (A) (A) (A) (A) (A) (A) (A)
                 (A) (A) (A) (A) (A) (A) (A) (A) (A) (A) (A) (A)
                 (A) (A) (A) (A) (A) (A) (A) (A) (A) (A) (A) (A)
                 (A) (A) (A) (A) (A) (A) (A) (A) (A) (A) (A) (A)
                 (A) (A) (A) (A) (A) (A) (A) (A) (A) (A) (A) (A)
                 (A) (A) (A) (A) (A) (A) (A) (A) (A) (A) (A) (A)
                 (A) (A) (A) (A) (A) (A) (A) (A) (A) (A) (A) (A)
                 (A) (A) (A) (A) (A) (A) (A) (A) (A) (A) (A) (A)
                 (A) (A) (A) (A) (A) (A) (A) (A) (A) (A) (A) (A)
                 (A) (A) (A) (A) (A) (A) (A) (A) (A) (A) (A) (A)
                 (A) (A) (A) (A) (A) (A) (A) (A) (A) (A) (A) (A)
                 (A) (A) (A) (A) (A) (A) (A) (A) (A) (A) (A) (A)
                 (A) (A) (A) (A) (A) (A) (A) (A) (A) (A) (A) (A)
                 (A) (A) (A) (A) (A) (A) (A) (A) (A) (A) (A) (A)
                 (A) (A) (A) (A) (A) (A) (A) (A) (A) (A) (A) (A)
                 (A) (A) (A) (A) (A) (A) (A) (A) (A) (A) (A) (A)
                 (A) (A) (A) (A) (A) (A) (A) (A) (A) (A) (A) (A)
                 (A) (A) (A) (A) (A) (A) (A) (A) (A) (A) (A) (A)
                 (A) (A) (A) (A) (A) (A) (A) (A) (A) (A) (A) (A)
                 (A) (A) (A) (A) (A) (A) (A) (A) (A) (A) (A) (A)
                 (A) (A) (A) (A) (A) (A) (A) (A) (A) (A) (A) (A)
                 (A) (A) (A) (A) (A) (A) (A) (A) (A) (A) (A) (A)
                 (A) (A) (A) (A) (A) (A) (A) (A) (A) (A) (A) (A)
                 (A) (A) (A) (A) (A) (A)
 The electronic state is 1-A.
 Alpha  occ. eigenvalues --  -91.93348 -20.60445 -15.62983 -15.59789 -15.56432
 Alpha  occ. eigenvalues --  -15.55826 -15.55658 -11.36628 -11.36522 -11.32222
 Alpha  occ. eigenvalues --  -11.31533 -11.29021 -11.27910 -11.26108 -11.24709
 Alpha  occ. eigenvalues --  -11.24696 -11.23782 -11.23463 -11.22795 -11.22679
 Alpha  occ. eigenvalues --  -11.22260 -11.21616 -11.21355 -11.21067 -11.20960
 Alpha  occ. eigenvalues --  -11.20767  -8.94298  -6.62598  -6.62462  -6.62256
 Alpha  occ. eigenvalues --   -1.44244  -1.36796  -1.32313  -1.23716  -1.20444
 Alpha  occ. eigenvalues --   -1.16737  -1.15140  -1.12245  -1.06582  -1.05080
 Alpha  occ. eigenvalues --   -1.02997  -1.00688  -1.00166  -0.99247  -0.94381
 Alpha  occ. eigenvalues --   -0.89235  -0.87664  -0.87275  -0.84213  -0.83361
 Alpha  occ. eigenvalues --   -0.82378  -0.80949  -0.80261  -0.76838  -0.75529
 Alpha  occ. eigenvalues --   -0.74311  -0.70975  -0.68156  -0.67852  -0.67480
 Alpha  occ. eigenvalues --   -0.65857  -0.65634  -0.63790  -0.63034  -0.61932
 Alpha  occ. eigenvalues --   -0.61313  -0.60318  -0.60076  -0.59600  -0.59331
 Alpha  occ. eigenvalues --   -0.59245  -0.58388  -0.58189  -0.55498  -0.55239
 Alpha  occ. eigenvalues --   -0.53294  -0.52462  -0.52361  -0.51831  -0.50779
 Alpha  occ. eigenvalues --   -0.49856  -0.49616  -0.48931  -0.48204  -0.47380
 Alpha  occ. eigenvalues --   -0.45450  -0.45115  -0.44776  -0.43429  -0.42986
 Alpha  occ. eigenvalues --   -0.42742  -0.42266  -0.40663  -0.38182  -0.34057
 Alpha  occ. eigenvalues --   -0.33613  -0.32989  -0.27868
 Alpha virt. eigenvalues --    0.12227   0.12577   0.14396   0.18683   0.20909
 Alpha virt. eigenvalues --    0.21826   0.22129   0.22386   0.23212   0.24024
 Alpha virt. eigenvalues --    0.25062   0.25683   0.27793   0.28014   0.28390
 Alpha virt. eigenvalues --    0.28852   0.29493   0.29707   0.30235   0.31013
 Alpha virt. eigenvalues --    0.31962   0.32385   0.32704   0.33200   0.33944
 Alpha virt. eigenvalues --    0.34020   0.34709   0.35143   0.35446   0.36473
 Alpha virt. eigenvalues --    0.37509   0.38051   0.38914   0.39252   0.40448
 Alpha virt. eigenvalues --    0.41257   0.42621   0.42956   0.43367   0.43811
 Alpha virt. eigenvalues --    0.44762   0.45461   0.45600   0.46667   0.47428
 Alpha virt. eigenvalues --    0.48422   0.48937   0.49750   0.50707   0.52101
 Alpha virt. eigenvalues --    0.53556   0.55051   0.56165   0.57765   0.59317
 Alpha virt. eigenvalues --    0.59994   0.60614   0.61496   0.64652   0.66139
 Alpha virt. eigenvalues --    0.67545   0.68877   0.70986   0.71720   0.72496
 Alpha virt. eigenvalues --    0.72786   0.73016   0.73141   0.74223   0.74602
 Alpha virt. eigenvalues --    0.75071   0.76065   0.76556   0.77108   0.78016
 Alpha virt. eigenvalues --    0.78869   0.80441   0.80739   0.81237   0.81323
 Alpha virt. eigenvalues --    0.82134   0.82309   0.83336   0.84392   0.84713
 Alpha virt. eigenvalues --    0.84889   0.85592   0.85761   0.86478   0.87749
 Alpha virt. eigenvalues --    0.88538   0.88919   0.90533   0.91448   0.92256
 Alpha virt. eigenvalues --    0.92631   0.94244   0.95459   0.96919   0.97461
 Alpha virt. eigenvalues --    0.98471   0.99169   0.99720   1.00109   1.01409
 Alpha virt. eigenvalues --    1.01551   1.02008   1.02781   1.03021   1.04453
 Alpha virt. eigenvalues --    1.05247   1.05847   1.06325   1.06802   1.07573
 Alpha virt. eigenvalues --    1.10305   1.10907   1.11195   1.11463   1.11755
 Alpha virt. eigenvalues --    1.12425   1.13069   1.13245   1.14230   1.14648
 Alpha virt. eigenvalues --    1.15130   1.15840   1.15984   1.16353   1.16757
 Alpha virt. eigenvalues --    1.16979   1.17379   1.17587   1.18093   1.18582
 Alpha virt. eigenvalues --    1.19262   1.19752   1.20223   1.20470   1.20963
 Alpha virt. eigenvalues --    1.21495   1.21967   1.22322   1.22412   1.23589
 Alpha virt. eigenvalues --    1.24054   1.24644   1.25716   1.26244   1.27095
 Alpha virt. eigenvalues --    1.27836   1.28624   1.31045   1.32124   1.33462
 Alpha virt. eigenvalues --    1.35767   1.36458   1.37943   1.39092   1.40591
 Alpha virt. eigenvalues --    1.40845   1.43653   1.45012   1.45255   1.46115
 Alpha virt. eigenvalues --    1.47113   1.48735   1.49621   1.50838   1.53147
 Alpha virt. eigenvalues --    1.54961   1.55435   1.56477   1.58910   1.59484
 Alpha virt. eigenvalues --    1.60855   1.61957   1.63790   1.64155   1.65582
 Alpha virt. eigenvalues --    1.66171   1.67944   1.68380   1.68893   1.69575
 Alpha virt. eigenvalues --    1.71102   1.72776   1.73118   1.73689   1.75050
 Alpha virt. eigenvalues --    1.76232   1.76984   1.77659   1.78672   1.79341
 Alpha virt. eigenvalues --    1.80211   1.83298   1.85681   1.86080   1.86793
 Alpha virt. eigenvalues --    1.89033   1.93089   1.93713   1.96744   2.00828
 Alpha virt. eigenvalues --    2.01062   2.02189   2.02863   2.03039   2.03802
 Alpha virt. eigenvalues --    2.05507   2.05985   2.07860   2.08945   2.10753
 Alpha virt. eigenvalues --    2.11448   2.13005   2.13583   2.16316   2.18731
 Alpha virt. eigenvalues --    2.19215   2.20168   2.20457   2.21412   2.22844
 Alpha virt. eigenvalues --    2.23287   2.26568   2.27450   2.27655   2.28564
 Alpha virt. eigenvalues --    2.29625   2.30328   2.31364   2.33011   2.34332
 Alpha virt. eigenvalues --    2.34660   2.34830   2.37029   2.38727   2.39610
 Alpha virt. eigenvalues --    2.41326   2.43020   2.44163   2.45169   2.45806
 Alpha virt. eigenvalues --    2.46358   2.46868   2.48216   2.48826   2.49009
 Alpha virt. eigenvalues --    2.50338   2.51779   2.53064   2.53494   2.54886
 Alpha virt. eigenvalues --    2.55467   2.56040   2.58593   2.58802   2.59653
 Alpha virt. eigenvalues --    2.60212   2.61617   2.61930   2.64255   2.65691
 Alpha virt. eigenvalues --    2.66683   2.68040   2.70193   2.71641   2.72858
 Alpha virt. eigenvalues --    2.73637   2.74940   2.75599   2.77070   2.78147
 Alpha virt. eigenvalues --    2.80360   2.81451   2.83184   2.85754   2.87430
 Alpha virt. eigenvalues --    2.88435   2.89589   2.91110   2.92138   2.94061
[...]
 1249 Fit      -0.008972
 1250 Fit      -0.004292
 1251 Fit      -0.001043
 1252 Fit       0.001132
 1253 Fit      -0.002524
 1254 Fit      -0.010267
 1255 Fit      -0.010506
 1256 Fit      -0.009906
 1257 Fit      -0.008964
 1258 Fit      -0.014095
 1259 Fit      -0.017965
 1260 Fit      -0.019803
 1261 Fit      -0.017325
 1262 Fit      -0.013204
 1263 Fit      -0.037346
 1264 Fit      -0.024550
 1265 Fit      -0.001317
 1266 Fit      -0.003038
 1267 Fit      -0.001558
 1268 Fit      -0.002746
 1269 Fit      -0.004889
 1270 Fit      -0.001767
 1271 Fit      -0.002883
 1272 Fit      -0.005385
 1273 Fit      -0.009488
 1274 Fit      -0.008845
 1275 Fit      -0.001821
 1276 Fit      -0.009975
 1277 Fit      -0.002679
 1278 Fit       0.003448
 1279 Fit      -0.008250
 1280 Fit      -0.001006
 1281 Fit       0.002429
 1282 Fit       0.006450
 1283 Fit      -0.005318
 1284 Fit      -0.000269
 1285 Fit       0.003495
 1286 Fit      -0.001047
 1287 Fit      -0.018481
 1288 Fit      -0.018518
 1289 Fit      -0.019579
 1290 Fit      -0.019260
 1291 Fit      -0.015433
 1292 Fit      -0.014064
 1293 Fit      -0.016606
 1294 Fit      -0.017516
 1295 Fit      -0.017053
 1296 Fit      -0.018488
 1297 Fit      -0.019913
 1298 Fit      -0.017355
 1299 Fit      -0.006953
 1300 Fit      -0.010342
 1301 Fit      -0.015267
 1302 Fit      -0.017875
 1303 Fit      -0.016121
 1304 Fit      -0.014855
 1305 Fit      -0.016586
 1306 Fit      -0.019723
 1307 Fit      -0.021304
 1308 Fit      -0.016518
 1309 Fit       0.001096
 1310 Fit      -0.005806
 1311 Fit      -0.013092
 1312 Fit      -0.017792
 1313 Fit      -0.018343
 1314 Fit      -0.012666
 1315 Fit      -0.007528
 1316 Fit      -0.015231
 1317 Fit      -0.018726
 1318 Fit      -0.017014
 1319 Fit      -0.006646
 1320 Fit      -0.014174
 1321 Fit      -0.016794
 1322 Fit      -0.011776
 1323 Fit      -0.008636
 1324 Fit      -0.012432
 1325 Fit       0.022873
 1326 Fit       0.016878
 1327 Fit       0.027186
 1328 Fit       0.032562
 1329 Fit       0.036086
 1330 Fit       0.023396
 1331 Fit       0.031716
 1332 Fit       0.035313
 1333 Fit       0.035973
 1334 Fit       0.017840
 1335 Fit       0.029098
 1336 Fit       0.031601
 1337 Fit       0.024983
 1338 Fit       0.023378
 1339 Fit       0.003158
 1340 Fit       0.015300
 1341 Fit       0.004365
 1342 Fit       0.017693
 1343 Fit       0.003680
 1344 Fit       0.018369
 1345 Fit       0.006087
 1346 Fit       0.011562
 1347 Fit       0.005495
 1348 Fit       0.012225
 1349 Fit       0.009431
 1350 Fit       0.011324
 1351 Fit       0.015824
 1352 Fit       0.013015
 1353 Fit       0.012893
 1354 Fit       0.015197
 1355 Fit       0.019985
 1356 Fit       0.010286
 1357 Fit       0.013550
 1358 Fit       0.015308
 1359 Fit       0.008399
 1360 Fit       0.008365
 1361 Fit       0.003341
 1362 Fit       0.001690
 1363 Fit       0.004875
 1364 Fit       0.007943
 1365 Fit       0.007667
 1366 Fit       0.007239
 1367 Fit       0.007627
 1368 Fit       0.007755
 1369 Fit       0.009527
 1370 Fit       0.010179
 1371 Fit       0.011346
 1372 Fit       0.004248
 1373 Fit       0.007895
 1374 Fit       0.008417
 1375 Fit       0.009728
 1376 Fit       0.004270
 1377 Fit       0.004457
 1378 Fit       0.007741
 1379 Fit       0.005366
 1380 Fit       0.005027
 1381 Fit       0.004424
 1382 Fit       0.003720
 1383 Fit       0.004155
 1384 Fit       0.004861
 1385 Fit       0.002000
 1386 Fit       0.007379
 1387 Fit       0.006370
 1388 Fit       0.003265
 1389 Fit       0.008255
 1390 Fit       0.007508
 1391 Fit       0.006901
 1392 Fit       0.005070
 1393 Fit       0.001227
 1394 Fit       0.006004
 1395 Fit       0.005044
 1396 Fit       0.010642
 1397 Fit       0.006770
 1398 Fit       0.006492
 1399 Fit      -0.002439
 1400 Fit       0.002713
 1401 Fit       0.002356
 1402 Fit      -0.001315
 1403 Fit      -0.003875
 1404 Fit       0.004180
 1405 Fit       0.003893
 1406 Fit       0.002589
 1407 Fit       0.000052
 1408 Fit      -0.000151
 1409 Fit      -0.004412
 1410 Fit      -0.001797
 1411 Fit       0.002297
 1412 Fit       0.003849
 1413 Fit       0.003169
 1414 Fit       0.001700
 1415 Fit      -0.009541
 1416 Fit      -0.007471
 1417 Fit      -0.005905
 1418 Fit      -0.006862
 1419 Fit      -0.005322
 1420 Fit      -0.000350
 1421 Fit       0.002152
 1422 Fit       0.000402
 1423 Fit       0.009033
 1424 Fit       0.011969
 1425 Fit       0.020497
 1426 Fit      -0.002126
 1427 Fit       0.001676
 1428 Fit      -0.008563
 1429 Fit       0.023533
 1430 Fit       0.013791
 1431 Fit       0.004058
 1432 Fit      -0.003278
 1433 Fit      -0.005390
 1434 Fit       0.010231
 1435 Fit      -0.004668
 1436 Fit      -0.001376
 1437 Fit       0.003805
 1438 Fit      -0.000663
 1439 Fit      -0.000922
 1440 Fit      -0.000624
 1441 Fit       0.000477
 1442 Fit       0.002065
 1443 Fit      -0.002672
 1444 Fit      -0.002564
 1445 Fit      -0.002178
 1446 Fit      -0.002798
 1447 Fit      -0.002464
 1448 Fit      -0.001507
 1449 Fit      -0.002003
 1450 Fit      -0.002524
 1451 Fit      -0.004389
 1452 Fit      -0.003143
 1453 Fit      -0.007290
 1454 Fit      -0.006471
 1455 Fit      -0.007337
 1456 Fit      -0.008989
 1457 Fit      -0.011498
 1458 Fit      -0.014282
 1459 Fit      -0.003039
 1460 Fit      -0.004561
 1461 Fit      -0.006588
 1462 Fit       0.000522
 1463 Fit       0.002862
 1464 Fit      -0.011447
 1465 Fit      -0.007795
 1466 Fit      -0.002172
 1467 Fit       0.005223
 1468 Fit      -0.006608
 1469 Fit      -0.001601
 1470 Fit      -0.001284
 1471 Fit      -0.010590
 1472 Fit      -0.013710
 1473 Fit      -0.018116
 1474 Fit      -0.005312
 1475 Fit      -0.008649
 1476 Fit      -0.005270
 1477 Fit      -0.014650
 1478 Fit      -0.009396
 1479 Fit      -0.007052
 1480 Fit      -0.004008
 1481 Fit      -0.019901
 1482 Fit      -0.018013
 1483 Fit      -0.020296
 1484 Fit      -0.017510
 1485 Fit      -0.015861
 1486 Fit      -0.009738
 1487 Fit      -0.008309
 1488 Fit      -0.014747
 1489 Fit      -0.011564
 1490 Fit      -0.008275
 1491 Fit      -0.005811
 1492 Fit      -0.007639
 1493 Fit      -0.010360
 1494 Fit      -0.007930
 1495 Fit      -0.009519
 1496 Fit      -0.011727
 1497 Fit      -0.005927
 1498 Fit      -0.018566
 1499 Fit      -0.023925
 1500 Fit      -0.022864
 1501 Fit      -0.012449
 1502 Fit      -0.015047
 1503 Fit      -0.008843
 1504 Fit      -0.010634
 1505 Fit      -0.009376
 1506 Fit      -0.023872
 1507 Fit      -0.020129
 1508 Fit      -0.018853
 1509 Fit      -0.021091
 1510 Fit      -0.026212
 1511 Fit      -0.013738
 1512 Fit      -0.012292
 1513 Fit      -0.012320
 1514 Fit      -0.015864
 1515 Fit      -0.022860
 1516 Fit      -0.028956
 1517 Fit      -0.009108
 1518 Fit      -0.019243
 1519 Fit      -0.027158
 1520 Fit      -0.031411
 1521 Fit      -0.013240
 1522 Fit      -0.023199
 1523 Fit      -0.028458
 1524 Fit      -0.030765
 1525 Fit      -0.018244
 1526 Fit      -0.023990
 1527 Fit      -0.025547
 1528 Fit      -0.013422
 1529 Fit      -0.018879
 1530 Fit      -0.019316
 1531 Fit      -0.013441
 1532 Fit      -0.001766
 1533 Fit       0.003064
 1534 Fit       0.005299
 1535 Fit       0.011433
 1536 Fit       0.016203
 1537 Fit       0.008927
 1538 Fit       0.018192
 1539 Fit       0.023667
 1540 Fit       0.027008
 1541 Fit       0.017498
 1542 Fit       0.007509
 1543 Fit       0.000686
 1544 Fit       0.006826
 1545 Fit       0.012284
 1546 Fit       0.004347
 1547 Fit       0.000621
 1548 Fit       0.011666
 1549 Fit      -0.006325
 1550 Fit      -0.003696
 1551 Fit      -0.004303
 1552 Fit      -0.008061
 1553 Fit      -0.006412
 1554 Fit      -0.007462
 1555 Fit      -0.003877
 1556 Fit      -0.005017
 1557 Fit      -0.003895
 1558 Fit      -0.001110
 1559 Fit      -0.001934
 1560 Fit      -0.000673
 1561 Fit       0.001567
 1562 Fit       0.002894
 1563 Fit      -0.001610
 1564 Fit       0.007313
 1565 Fit      -0.006257
 1566 Fit      -0.001048
 1567 Fit      -0.003714
 1568 Fit      -0.001363
 1569 Fit      -0.004113
 1570 Fit      -0.007024
 1571 Fit      -0.005156
 1572 Fit      -0.005841
 1573 Fit      -0.011297
 1574 Fit      -0.011290
 1575 Fit      -0.008501
 1576 Fit      -0.004327
 1577 Fit      -0.005876
 1578 Fit       0.004631
 1579 Fit       0.002809
 1580 Fit      -0.009665
 1581 Fit      -0.007467
 1582 Fit      -0.003754
 1583 Fit      -0.004512
 1584 Fit       0.002600
 1585 Fit      -0.017393
 1586 Fit      -0.013085
 1587 Fit      -0.010497
 1588 Fit      -0.013794
 1589 Fit      -0.013706
 1590 Fit      -0.011136
 1591 Fit      -0.005598
 1592 Fit      -0.003222
 1593 Fit       0.001277
 1594 Fit      -0.015272
 1595 Fit      -0.006728
 1596 Fit      -0.010438
 1597 Fit       0.003894
 1598 Fit      -0.000813
 1599 Fit      -0.005637
 1600 Fit      -0.003058
 1601 Fit       0.001062
 1602 Fit       0.003095
 1603 Fit       0.012602
 1604 Fit       0.010667
 1605 Fit       0.005459
 1606 Fit      -0.005554
 1607 Fit       0.020750
 1608 Fit       0.018696
 1609 Fit       0.016153
 1610 Fit       0.012306
 1611 Fit       0.006024
 1612 Fit       0.029314
 1613 Fit       0.023441
 1614 Fit       0.019527
 1615 Fit       0.015361
 1616 Fit       0.009634
 1617 Fit       0.028054
 1618 Fit       0.021271
 1619 Fit       0.015647
 1620 Fit       0.008796
 1621 Fit       0.024207
 1622 Fit      -0.000247
 1623 Fit       0.004714
 1624 Fit      -0.001051
 1625 Fit       0.003355
 1626 Fit      -0.002633
 1627 Fit      -0.008458
 1628 Fit      -0.006203
 1629 Fit      -0.005285
 1630 Fit      -0.012929
 1631 Fit      -0.012576
 1632 Fit      -0.004747
 1633 Fit      -0.000535
 1634 Fit      -0.009829
 1635 Fit      -0.002836
 1636 Fit       0.000780
 1637 Fit       0.003335
 1638 Fit      -0.005301
 1639 Fit       0.000576
 1640 Fit      -0.005755
 1641 Fit      -0.003948
 1642 Fit      -0.004004
 1643 Fit      -0.003451
 1644 Fit       0.003423
 1645 Fit       0.005503
 1646 Fit       0.003678
 1647 Fit       0.004221
 1648 Fit       0.005612
 1649 Fit       0.006058
 1650 Fit       0.006419
 1651 Fit      -0.000893
 1652 Fit      -0.001275
 1653 Fit      -0.000511
 1654 Fit       0.000147
 1655 Fit       0.000393
 1656 Fit      -0.000303
 1657 Fit      -0.001748
 1658 Fit      -0.000739
 1659 Fit       0.000379
 1660 Fit       0.001102
 1661 Fit       0.000957
 1662 Fit      -0.000208
 1663 Fit       0.000469
 1664 Fit       0.001487
 1665 Fit       0.001692
 1666 Fit       0.000692
 1667 Fit       0.000983
 1668 Fit       0.002364
 1669 Fit       0.002988
 1670 Fit       0.000539
 1671 Fit       0.000415
 1672 Fit      -0.000174
 1673 Fit       0.000952
 1674 Fit       0.000994
 1675 Fit       0.000524
 1676 Fit      -0.000249
 1677 Fit       0.001243
 1678 Fit       0.001420
 1679 Fit       0.001238
 1680 Fit       0.000840
 1681 Fit       0.002056
 1682 Fit       0.002047
 1683 Fit      -0.002716
 1684 Fit      -0.001912
 1685 Fit      -0.001993
 1686 Fit      -0.002575
 1687 Fit      -0.001571
 1688 Fit      -0.001466
 1689 Fit      -0.001689
 1690 Fit      -0.002378
 1691 Fit      -0.001848
 1692 Fit      -0.001911
 1693 Fit      -0.001552
 1694 Fit      -0.001613
 1695 Fit      -0.001856
 1696 Fit      -0.001611
 1697 Fit      -0.001783
 1698 Fit      -0.000706
 1699 Fit      -0.000390
 1700 Fit      -0.001565
 1701 Fit      -0.001177
 1702 Fit      -0.000004
 1703 Fit       0.000381
 1704 Fit      -0.000114
 1705 Fit      -0.001304
 1706 Fit      -0.000803
 1707 Fit       0.000174
 1708 Fit       0.000387
 1709 Fit       0.000014
 1710 Fit      -0.000609
 1711 Fit      -0.000041
 1712 Fit      -0.000119
 1713 Fit      -0.001355
 1714 Fit      -0.001682
 1715 Fit      -0.001408
 1716 Fit      -0.001442
 1717 Fit      -0.001670
 1718 Fit      -0.001777
 1719 Fit      -0.002149
 1720 Fit      -0.002379
 1721 Fit      -0.002470
 1722 Fit      -0.002623
 1723 Fit      -0.002817
 1724 Fit      -0.002738
 1725 Fit      -0.004655
 1726 Fit      -0.004740
 1727 Fit      -0.004808
 1728 Fit      -0.004825
 1729 Fit      -0.004345
 1730 Fit      -0.002750
 1731 Fit      -0.004939
 1732 Fit      -0.002889
 1733 Fit      -0.001439
 1734 Fit      -0.000481
 1735 Fit      -0.009011
 1736 Fit      -0.005537
 1737 Fit      -0.002768
 1738 Fit      -0.000900
 1739 Fit       0.000486
 1740 Fit      -0.010474
 1741 Fit      -0.005190
 1742 Fit      -0.001671
 1743 Fit      -0.008968
 1744 Fit      -0.008548
 1745 Fit      -0.013189
 1746 Fit      -0.014694
 1747 Fit      -0.014040
 1748 Fit      -0.011822
 1749 Fit      -0.027062
 1750 Fit      -0.020007
 1751 Fit      -0.013495
 1752 Fit      -0.029933
 1753 Fit      -0.001720
 1754 Fit      -0.002988
 1755 Fit      -0.002094
 1756 Fit      -0.003056
 1757 Fit      -0.004491
 1758 Fit      -0.003095
 1759 Fit      -0.003638
 1760 Fit      -0.004934
 1761 Fit      -0.007308
 1762 Fit      -0.005485
 1763 Fit      -0.004308
 1764 Fit      -0.005508
 1765 Fit       0.000471
 1766 Fit      -0.003330
 1767 Fit      -0.000230
 1768 Fit       0.004023
 1769 Fit      -0.004343
 1770 Fit      -0.000174
 1771 Fit       0.002388
 1772 Fit       0.005690
 1773 Fit      -0.004515
 1774 Fit      -0.000844
 1775 Fit       0.002383
 1776 Fit      -0.014841
 1777 Fit      -0.015477
 1778 Fit      -0.016142
 1779 Fit      -0.014976
 1780 Fit      -0.011851
 1781 Fit      -0.011652
 1782 Fit      -0.013831
 1783 Fit      -0.015076
 1784 Fit      -0.015170
 1785 Fit      -0.016095
 1786 Fit      -0.016399
 1787 Fit      -0.013442
 1788 Fit      -0.006887
 1789 Fit      -0.009447
 1790 Fit      -0.012852
 1791 Fit      -0.014846
 1792 Fit      -0.014154
 1793 Fit      -0.013770
 1794 Fit      -0.015060
 1795 Fit      -0.017033
 1796 Fit      -0.017560
 1797 Fit      -0.000417
 1798 Fit      -0.001625
 1799 Fit      -0.006109
 1800 Fit      -0.011022
 1801 Fit      -0.014317
 1802 Fit      -0.015062
 1803 Fit      -0.012157
 1804 Fit      -0.012120
 1805 Fit      -0.001538
 1806 Fit      -0.008028
 1807 Fit      -0.012846
 1808 Fit      -0.014963
 1809 Fit      -0.014173
 1810 Fit      -0.003442
 1811 Fit      -0.009415
 1812 Fit      -0.013170
 1813 Fit      -0.013714
 1814 Fit      -0.010761
 1815 Fit      -0.005911
 1816 Fit      -0.010431
 1817 Fit      -0.011047
 1818 Fit      -0.005235
 1819 Fit      -0.007910
 1820 Fit       0.019552
 1821 Fit       0.024909
 1822 Fit       0.028775
 1823 Fit       0.013639
 1824 Fit       0.022981
 1825 Fit       0.027810
 1826 Fit       0.030623
 1827 Fit       0.032585
 1828 Fit       0.019498
 1829 Fit       0.026433
 1830 Fit       0.029467
 1831 Fit       0.029778
 1832 Fit       0.014849
 1833 Fit       0.023707
 1834 Fit       0.025899
 1835 Fit       0.019245
 1836 Fit       0.009408
 1837 Fit       0.002392
 1838 Fit       0.015684
 1839 Fit       0.008314
 1840 Fit       0.014869
 1841 Fit       0.004748
 1842 Fit       0.014418
 1843 Fit       0.005447
 1844 Fit       0.008945
 1845 Fit       0.006930
 1846 Fit       0.010161
 1847 Fit       0.009847
 1848 Fit       0.010846
 1849 Fit       0.013640
 1850 Fit       0.010783
 1851 Fit       0.011252
 1852 Fit       0.013043
 1853 Fit       0.016160
 1854 Fit       0.008551
 1855 Fit       0.011200
 1856 Fit       0.012095
 1857 Fit       0.006711
 1858 Fit       0.007075
 1859 Fit       0.000389
 1860 Fit       0.004943
 1861 Fit       0.004452
 1862 Fit       0.003670
 1863 Fit       0.005308
 1864 Fit       0.007264
 1865 Fit       0.007496
 1866 Fit       0.007841
 1867 Fit       0.005545
 1868 Fit       0.006666
 1869 Fit       0.007803
 1870 Fit       0.008691
 1871 Fit       0.010073
 1872 Fit       0.002943
 1873 Fit       0.006187
 1874 Fit       0.006670
 1875 Fit       0.007952
 1876 Fit       0.003291
 1877 Fit       0.003681
 1878 Fit       0.005606
 1879 Fit      -0.000823
 1880 Fit       0.004520
 1881 Fit       0.004047
 1882 Fit       0.003879
 1883 Fit       0.003355
 1884 Fit       0.002796
 1885 Fit       0.002778
 1886 Fit       0.005477
 1887 Fit       0.004437
 1888 Fit       0.001538
 1889 Fit       0.006849
 1890 Fit       0.006186
 1891 Fit       0.005287
 1892 Fit       0.003249
 1893 Fit      -0.000761
 1894 Fit       0.006291
 1895 Fit       0.005719
 1896 Fit       0.004870
 1897 Fit       0.003048
 1898 Fit       0.006875
 1899 Fit      -0.002105
 1900 Fit       0.003573
 1901 Fit       0.004497
 1902 Fit      -0.003217
 1903 Fit       0.001400
 1904 Fit       0.003265
 1905 Fit       0.001651
 1906 Fit      -0.000932
 1907 Fit      -0.003471
 1908 Fit       0.003370
 1909 Fit       0.003113
 1910 Fit       0.002000
 1911 Fit      -0.000054
 1912 Fit      -0.000899
 1913 Fit      -0.004293
 1914 Fit      -0.002094
 1915 Fit       0.001407
 1916 Fit       0.002685
 1917 Fit       0.001964
 1918 Fit       0.000633
 -----------------------------------------------------------------
 Leave Link  602 at Tue Feb  4 10:31:38 2025, MaxMem=   104857600 cpu:               0.2 elap:               0.2
 (Enter /home/pb777/GAUSSIAN/g16/l9999.exe)

 Test job not archived.
 1\1\GINC-BUMBU\SP\RHF\6-31G(d)\C19H23N5O1S1\PB777\04-Feb-2025\0\\#P HF
 /6-31G* GEOM(AllCheck) Guess(Read) NoSymm Pop=mk IOp(6/33=2) GFInput G
 FPrint\\Gaussian Calculation\\0,1\C,0,1.4423208512,29.2623780028,6.991
 3811491\C,0,-2.2744450389,31.4542546139,7.5335270049\C,0,-0.2356834362
 ,26.5719176794,9.4523145814\C,0,-1.0847775281,25.7991976504,10.4426534
 043\C,0,-0.430174372,24.4489398377,10.7508945878\C,0,-1.2472927749,23.
 6459267908,11.7621639713\C,0,-1.4915131549,24.4420708964,13.0428734814
 \C,0,-2.1461918667,25.7881580114,12.7384731099\C,0,-1.3264433829,26.59
 08548388,11.730467276\C,0,5.8289715845,27.115347214,6.2639394287\C,0,5
 .573412141,25.986167538,7.0390502463\C,0,4.3321661762,25.8640889851,7.
 6619865407\C,0,3.3566873194,26.8530505329,7.5217433937\N,0,0.865209730
 1,28.3672211894,7.8127291159\C,0,-0.3526695049,28.6182007645,8.2751030
 664\O,0,-0.9483745192,27.7600183974,9.0910886921\C,0,-1.02228129,29.79
 45664985,7.9033582705\N,0,-2.2564759912,30.3346904223,8.1986956635\N,0
 ,-1.1228910539,31.6886397538,6.8132471943\C,0,-0.2949827586,30.6238365
 675,7.0388907467\N,0,0.924793278,30.4177227656,6.5541596814\N,0,2.7061
 547444,29.0144428095,6.5171285163\C,0,3.610976118,27.977257472,6.72850
 64026\C,0,4.863231145,28.0956945465,6.1024806168\H,0,-3.0963521143,32.
 158783999,7.5225370733\H,0,-0.0422193625,25.9842716638,8.5460417714\H,
 0,0.7327948883,26.8468719032,9.8880091202\H,0,-2.059559118,25.60929474
 09,9.967105798\H,0,0.5795588585,24.6219842632,11.1536283575\H,0,-0.301
 4290578,23.8716082237,9.8251121088\H,0,-0.7381650103,22.7012256122,11.
 9896719407\H,0,-2.2151003024,23.3796783793,11.3123831731\H,0,-0.530292
 7723,24.6142464722,13.5493491746\H,0,-2.1117912731,23.8623067223,13.73
 77572546\H,0,-2.2781762863,26.3666279748,13.6611320304\H,0,-3.15362015
 98,25.6175547116,12.3310933992\H,0,-1.8225892648,27.5386299498,11.4942
 131789\H,0,-0.3513717725,26.8446171125,12.1753027922\H,0,6.319495949,2
 5.2071291363,7.1576630965\S,0,4.0098987492,24.4455716079,8.6954260676\
 H,0,2.4059970762,26.7671737337,8.0290954466\H,0,-0.9137432888,32.48477
 95298,6.2311518408\H,0,3.0287915028,29.7638774241,5.9214854226\H,0,5.0
 751977468,28.9698224326,5.4898739444\H,0,6.7909734234,27.2288237436,5.
 7714293838\C,0,2.6994607226,23.6291796612,7.7409697932\H,0,2.406495125
 9,22.7389901673,8.3048821968\H,0,1.8264257797,24.2774624123,7.62722542
 29\H,0,3.0615935453,23.3248446439,6.7556040699\\Version=ES64L-G16RevA.
 03\HF=-1477.5471613\RMSD=5.590e-09\Dipole=-0.1871752,0.9191113,-1.0280
 482\Quadrupole=-29.7738222,86.7199284,-56.9461063,-8.7038656,-7.257090
 2,-47.1383279\PG=C01 [X(C19H23N5O1S1)]\\@


 Statistics are no substitute for judgment.
                            -- Henry Clay
 Job cpu time:       0 days  0 hours  1 minutes 56.3 seconds.
 Elapsed time:       0 days  0 hours  1 minutes 56.8 seconds.
 File lengths (MBytes):  RWF=    104 Int=      0 D2E=      0 Chk=     18 Scr=      1
 Normal termination of Gaussian 16 at Tue Feb  4 10:31:38 2025.
